ITEM: TIME
0.27
ITEM: TIMESTEP
27000
ITEM: NUMBER OF ATOMS
13699
ITEM: BOX BOUNDS pp pp pp
-1.0000000000000001e-01 1.0000000000000001e-01
-2.0000000000000001e-01 1.1000000000000000e-01
-1.0000000000000000e-02 1.0000000000000000e-02
ITEM: ATOMS id type x y vx vy
1 3 -0.1 -0.08 0 0
2 3 -0.099 -0.08 0 0
3 3 -0.098 -0.08 0 0
4 3 -0.097 -0.08 0 0
5 3 -0.096 -0.08 0 0
6 3 -0.095 -0.08 0 0
7 3 -0.094 -0.08 0 0
8 3 -0.093 -0.08 0 0
9 3 -0.092 -0.08 0 0
10 3 -0.091 -0.08 0 0
11 3 -0.09 -0.08 0 0
12 3 -0.089 -0.08 0 0
13 3 -0.088 -0.08 0 0
14 3 -0.087 -0.08 0 0
15 3 -0.086 -0.08 0 0
16 3 -0.085 -0.08 0 0
17 3 -0.084 -0.08 0 0
18 3 -0.083 -0.08 0 0
19 3 -0.082 -0.08 0 0
20 3 -0.081 -0.08 0 0
21 3 -0.08 -0.08 0 0
22 3 -0.079 -0.08 0 0
23 3 -0.078 -0.08 0 0
24 3 -0.077 -0.08 0 0
25 3 -0.076 -0.08 0 0
26 3 -0.075 -0.08 0 0
27 3 -0.074 -0.08 0 0
28 3 -0.073 -0.08 0 0
29 3 -0.072 -0.08 0 0
30 3 -0.071 -0.08 0 0
31 3 -0.07 -0.08 0 0
32 3 -0.069 -0.08 0 0
33 3 -0.068 -0.08 0 0
34 3 -0.067 -0.08 0 0
35 3 -0.066 -0.08 0 0
36 3 -0.065 -0.08 0 0
37 3 -0.064 -0.08 0 0
38 3 -0.063 -0.08 0 0
39 3 -0.062 -0.08 0 0
40 3 -0.061 -0.08 0 0
41 3 -0.06 -0.08 0 0
42 3 -0.059 -0.08 0 0
43 3 -0.058 -0.08 0 0
44 3 -0.057 -0.08 0 0
45 3 -0.056 -0.08 0 0
46 3 -0.055 -0.08 0 0
47 3 -0.054 -0.08 0 0
48 3 -0.053 -0.08 0 0
49 3 -0.052 -0.08 0 0
50 3 -0.051 -0.08 0 0
51 3 -0.05 -0.08 0 0
52 3 -0.049 -0.08 0 0
53 3 -0.048 -0.08 0 0
54 3 -0.047 -0.08 0 0
55 3 -0.046 -0.08 0 0
56 3 -0.045 -0.08 0 0
57 3 -0.044 -0.08 0 0
58 3 -0.043 -0.08 0 0
59 3 -0.042 -0.08 0 0
60 3 -0.041 -0.08 0 0
61 3 -0.04 -0.08 0 0
62 3 -0.039 -0.08 0 0
63 3 -0.038 -0.08 0 0
64 3 -0.037 -0.08 0 0
65 3 -0.036 -0.08 0 0
66 3 -0.035 -0.08 0 0
67 3 -0.034 -0.08 0 0
68 3 -0.033 -0.08 0 0
69 3 -0.032 -0.08 0 0
70 3 -0.031 -0.08 0 0
71 3 -0.03 -0.08 0 0
72 3 -0.029 -0.08 0 0
73 3 -0.028 -0.08 0 0
74 3 -0.027 -0.08 0 0
75 3 -0.026 -0.08 0 0
76 3 -0.025 -0.08 0 0
77 3 -0.024 -0.08 0 0
78 3 -0.023 -0.08 0 0
79 3 -0.022 -0.08 0 0
80 3 -0.021 -0.08 0 0
81 3 -0.02 -0.08 0 0
82 3 -0.019 -0.08 0 0
83 3 -0.018 -0.08 0 0
84 3 -0.017 -0.08 0 0
85 3 -0.016 -0.08 0 0
86 3 -0.015 -0.08 0 0
87 3 -0.014 -0.08 0 0
88 3 -0.013 -0.08 0 0
89 3 -0.012 -0.08 0 0
90 3 -0.011 -0.08 0 0
91 3 -0.01 -0.08 0 0
92 3 -0.009 -0.08 0 0
93 3 -0.008 -0.08 0 0
94 3 -0.007 -0.08 0 0
95 3 -0.006 -0.08 0 0
96 3 -0.005 -0.08 0 0
97 3 -0.004 -0.08 0 0
98 3 -0.003 -0.08 0 0
99 3 -0.002 -0.08 0 0
100 3 -0.001 -0.08 0 0
101 3 -0.1 -0.079 0 0
102 3 -0.099 -0.079 0 0
103 3 -0.098 -0.079 0 0
201 3 -0.1 -0.078 0 0
202 3 -0.099 -0.078 0 0
203 3 -0.098 -0.078 0 0
301 3 -0.1 -0.077 0 0
302 3 -0.099 -0.077 0 0
303 3 -0.098 -0.077 0 0
104 3 -0.097 -0.079 0 0
105 3 -0.096 -0.079 0 0
204 3 -0.097 -0.078 0 0
205 3 -0.096 -0.078 0 0
304 3 -0.097 -0.077 0 0
305 3 -0.096 -0.077 0 0
106 3 -0.095 -0.079 0 0
107 3 -0.094 -0.079 0 0
108 3 -0.093 -0.079 0 0
206 3 -0.095 -0.078 0 0
306 3 -0.095 -0.077 0 0
207 3 -0.094 -0.078 0 0
208 3 -0.093 -0.078 0 0
307 3 -0.094 -0.077 0 0
308 3 -0.093 -0.077 0 0
109 3 -0.092 -0.079 0 0
110 3 -0.091 -0.079 0 0
209 3 -0.092 -0.078 0 0
210 3 -0.091 -0.078 0 0
309 3 -0.092 -0.077 0 0
310 3 -0.091 -0.077 0 0
111 3 -0.09 -0.079 0 0
112 3 -0.089 -0.079 0 0
113 3 -0.088 -0.079 0 0
211 3 -0.09 -0.078 0 0
311 3 -0.09 -0.077 0 0
212 3 -0.089 -0.078 0 0
213 3 -0.088 -0.078 0 0
312 3 -0.089 -0.077 0 0
313 3 -0.088 -0.077 0 0
114 3 -0.087 -0.079 0 0
115 3 -0.086 -0.079 0 0
214 3 -0.087 -0.078 0 0
215 3 -0.086 -0.078 0 0
314 3 -0.087 -0.077 0 0
315 3 -0.086 -0.077 0 0
116 3 -0.085 -0.079 0 0
117 3 -0.084 -0.079 0 0
118 3 -0.083 -0.079 0 0
216 3 -0.085 -0.078 0 0
316 3 -0.085 -0.077 0 0
217 3 -0.084 -0.078 0 0
218 3 -0.083 -0.078 0 0
317 3 -0.084 -0.077 0 0
318 3 -0.083 -0.077 0 0
119 3 -0.082 -0.079 0 0
120 3 -0.081 -0.079 0 0
219 3 -0.082 -0.078 0 0
220 3 -0.081 -0.078 0 0
319 3 -0.082 -0.077 0 0
320 3 -0.081 -0.077 0 0
121 3 -0.08 -0.079 0 0
122 3 -0.079 -0.079 0 0
123 3 -0.078 -0.079 0 0
221 3 -0.08 -0.078 0 0
321 3 -0.08 -0.077 0 0
222 3 -0.079 -0.078 0 0
223 3 -0.078 -0.078 0 0
322 3 -0.079 -0.077 0 0
323 3 -0.078 -0.077 0 0
124 3 -0.077 -0.079 0 0
125 3 -0.076 -0.079 0 0
224 3 -0.077 -0.078 0 0
324 3 -0.077 -0.077 0 0
225 3 -0.076 -0.078 0 0
325 3 -0.076 -0.077 0 0
126 3 -0.075 -0.079 0 0
127 3 -0.074 -0.079 0 0
128 3 -0.073 -0.079 0 0
226 3 -0.075 -0.078 0 0
326 3 -0.075 -0.077 0 0
227 3 -0.074 -0.078 0 0
228 3 -0.073 -0.078 0 0
327 3 -0.074 -0.077 0 0
328 3 -0.073 -0.077 0 0
129 3 -0.072 -0.079 0 0
130 3 -0.071 -0.079 0 0
229 3 -0.072 -0.078 0 0
329 3 -0.072 -0.077 0 0
230 3 -0.071 -0.078 0 0
330 3 -0.071 -0.077 0 0
131 3 -0.07 -0.079 0 0
132 3 -0.069 -0.079 0 0
133 3 -0.068 -0.079 0 0
231 3 -0.07 -0.078 0 0
331 3 -0.07 -0.077 0 0
232 3 -0.069 -0.078 0 0
233 3 -0.068 -0.078 0 0
332 3 -0.069 -0.077 0 0
333 3 -0.068 -0.077 0 0
134 3 -0.067 -0.079 0 0
135 3 -0.066 -0.079 0 0
234 3 -0.067 -0.078 0 0
334 3 -0.067 -0.077 0 0
235 3 -0.066 -0.078 0 0
335 3 -0.066 -0.077 0 0
136 3 -0.065 -0.079 0 0
137 3 -0.064 -0.079 0 0
138 3 -0.063 -0.079 0 0
236 3 -0.065 -0.078 0 0
336 3 -0.065 -0.077 0 0
237 3 -0.064 -0.078 0 0
238 3 -0.063 -0.078 0 0
337 3 -0.064 -0.077 0 0
338 3 -0.063 -0.077 0 0
139 3 -0.062 -0.079 0 0
140 3 -0.061 -0.079 0 0
239 3 -0.062 -0.078 0 0
339 3 -0.062 -0.077 0 0
240 3 -0.061 -0.078 0 0
340 3 -0.061 -0.077 0 0
141 3 -0.06 -0.079 0 0
142 3 -0.059 -0.079 0 0
143 3 -0.058 -0.079 0 0
241 3 -0.06 -0.078 0 0
341 3 -0.06 -0.077 0 0
242 3 -0.059 -0.078 0 0
342 3 -0.059 -0.077 0 0
243 3 -0.058 -0.078 0 0
343 3 -0.058 -0.077 0 0
144 3 -0.057 -0.079 0 0
145 3 -0.056 -0.079 0 0
244 3 -0.057 -0.078 0 0
344 3 -0.057 -0.077 0 0
245 3 -0.056 -0.078 0 0
345 3 -0.056 -0.077 0 0
146 3 -0.055 -0.079 0 0
147 3 -0.054 -0.079 0 0
148 3 -0.053 -0.079 0 0
246 3 -0.055 -0.078 0 0
247 3 -0.054 -0.078 0 0
346 3 -0.055 -0.077 0 0
347 3 -0.054 -0.077 0 0
248 3 -0.053 -0.078 0 0
348 3 -0.053 -0.077 0 0
149 3 -0.052 -0.079 0 0
150 3 -0.051 -0.079 0 0
249 3 -0.052 -0.078 0 0
349 3 -0.052 -0.077 0 0
250 3 -0.051 -0.078 0 0
350 3 -0.051 -0.077 0 0
151 3 -0.05 -0.079 0 0
152 3 -0.049 -0.079 0 0
153 3 -0.048 -0.079 0 0
251 3 -0.05 -0.078 0 0
252 3 -0.049 -0.078 0 0
351 3 -0.05 -0.077 0 0
352 3 -0.049 -0.077 0 0
253 3 -0.048 -0.078 0 0
353 3 -0.048 -0.077 0 0
154 3 -0.047 -0.079 0 0
155 3 -0.046 -0.079 0 0
254 3 -0.047 -0.078 0 0
354 3 -0.047 -0.077 0 0
255 3 -0.046 -0.078 0 0
355 3 -0.046 -0.077 0 0
156 3 -0.045 -0.079 0 0
157 3 -0.044 -0.079 0 0
158 3 -0.043 -0.079 0 0
256 3 -0.045 -0.078 0 0
257 3 -0.044 -0.078 0 0
356 3 -0.045 -0.077 0 0
357 3 -0.044 -0.077 0 0
258 3 -0.043 -0.078 0 0
358 3 -0.043 -0.077 0 0
159 3 -0.042 -0.079 0 0
160 3 -0.041 -0.079 0 0
259 3 -0.042 -0.078 0 0
359 3 -0.042 -0.077 0 0
260 3 -0.041 -0.078 0 0
360 3 -0.041 -0.077 0 0
161 3 -0.04 -0.079 0 0
162 3 -0.039 -0.079 0 0
163 3 -0.038 -0.079 0 0
261 3 -0.04 -0.078 0 0
262 3 -0.039 -0.078 0 0
361 3 -0.04 -0.077 0 0
362 3 -0.039 -0.077 0 0
263 3 -0.038 -0.078 0 0
363 3 -0.038 -0.077 0 0
164 3 -0.037 -0.079 0 0
165 3 -0.036 -0.079 0 0
264 3 -0.037 -0.078 0 0
265 3 -0.036 -0.078 0 0
364 3 -0.037 -0.077 0 0
365 3 -0.036 -0.077 0 0
166 3 -0.035 -0.079 0 0
167 3 -0.034 -0.079 0 0
168 3 -0.033 -0.079 0 0
266 3 -0.035 -0.078 0 0
267 3 -0.034 -0.078 0 0
366 3 -0.035 -0.077 0 0
367 3 -0.034 -0.077 0 0
268 3 -0.033 -0.078 0 0
368 3 -0.033 -0.077 0 0
169 3 -0.032 -0.079 0 0
170 3 -0.031 -0.079 0 0
269 3 -0.032 -0.078 0 0
270 3 -0.031 -0.078 0 0
369 3 -0.032 -0.077 0 0
370 3 -0.031 -0.077 0 0
171 3 -0.03 -0.079 0 0
172 3 -0.029 -0.079 0 0
173 3 -0.028 -0.079 0 0
271 3 -0.03 -0.078 0 0
272 3 -0.029 -0.078 0 0
371 3 -0.03 -0.077 0 0
372 3 -0.029 -0.077 0 0
273 3 -0.028 -0.078 0 0
373 3 -0.028 -0.077 0 0
174 3 -0.027 -0.079 0 0
175 3 -0.026 -0.079 0 0
274 3 -0.027 -0.078 0 0
275 3 -0.026 -0.078 0 0
374 3 -0.027 -0.077 0 0
375 3 -0.026 -0.077 0 0
176 3 -0.025 -0.079 0 0
177 3 -0.024 -0.079 0 0
178 3 -0.023 -0.079 0 0
276 3 -0.025 -0.078 0 0
277 3 -0.024 -0.078 0 0
376 3 -0.025 -0.077 0 0
377 3 -0.024 -0.077 0 0
278 3 -0.023 -0.078 0 0
378 3 -0.023 -0.077 0 0
179 3 -0.022 -0.079 0 0
180 3 -0.021 -0.079 0 0
279 3 -0.022 -0.078 0 0
280 3 -0.021 -0.078 0 0
379 3 -0.022 -0.077 0 0
380 3 -0.021 -0.077 0 0
181 3 -0.02 -0.079 0 0
182 3 -0.019 -0.079 0 0
183 3 -0.018 -0.079 0 0
281 3 -0.02 -0.078 0 0
282 3 -0.019 -0.078 0 0
381 3 -0.02 -0.077 0 0
382 3 -0.019 -0.077 0 0
283 3 -0.018 -0.078 0 0
383 3 -0.018 -0.077 0 0
184 3 -0.017 -0.079 0 0
185 3 -0.016 -0.079 0 0
284 3 -0.017 -0.078 0 0
285 3 -0.016 -0.078 0 0
384 3 -0.017 -0.077 0 0
385 3 -0.016 -0.077 0 0
186 3 -0.015 -0.079 0 0
187 3 -0.014 -0.079 0 0
188 3 -0.013 -0.079 0 0
286 3 -0.015 -0.078 0 0
287 3 -0.014 -0.078 0 0
288 3 -0.013 -0.078 0 0
386 3 -0.015 -0.077 0 0
387 3 -0.014 -0.077 0 0
388 3 -0.013 -0.077 0 0
189 3 -0.012 -0.079 0 0
190 3 -0.011 -0.079 0 0
289 3 -0.012 -0.078 0 0
290 3 -0.011 -0.078 0 0
389 3 -0.012 -0.077 0 0
390 3 -0.011 -0.077 0 0
191 3 -0.01 -0.079 0 0
192 3 -0.009 -0.079 0 0
193 3 -0.008 -0.079 0 0
291 3 -0.01 -0.078 0 0
292 3 -0.009 -0.078 0 0
293 3 -0.008 -0.078 0 0
391 3 -0.01 -0.077 0 0
392 3 -0.009 -0.077 0 0
393 3 -0.008 -0.077 0 0
194 3 -0.007 -0.079 0 0
195 3 -0.006 -0.079 0 0
294 3 -0.007 -0.078 0 0
295 3 -0.006 -0.078 0 0
394 3 -0.007 -0.077 0 0
395 3 -0.006 -0.077 0 0
196 3 -0.005 -0.079 0 0
197 3 -0.004 -0.079 0 0
198 3 -0.003 -0.079 0 0
296 3 -0.005 -0.078 0 0
297 3 -0.004 -0.078 0 0
298 3 -0.003 -0.078 0 0
396 3 -0.005 -0.077 0 0
397 3 -0.004 -0.077 0 0
398 3 -0.003 -0.077 0 0
199 3 -0.002 -0.079 0 0
200 3 -0.001 -0.079 0 0
299 3 -0.002 -0.078 0 0
300 3 -0.001 -0.078 0 0
399 3 -0.002 -0.077 0 0
400 3 -0.001 -0.077 0 0
401 3 -0.1 -0.076 0 0
402 3 -0.099 -0.076 0 0
403 3 -0.098 -0.076 0 0
501 3 -0.1 -0.075 0 0
502 3 -0.099 -0.075 0 0
503 3 -0.098 -0.075 0 0
404 3 -0.097 -0.076 0 0
405 3 -0.096 -0.076 0 0
504 3 -0.097 -0.075 0 0
505 3 -0.096 -0.075 0 0
406 3 -0.095 -0.076 0 0
506 3 -0.095 -0.075 0 0
407 3 -0.094 -0.076 0 0
408 3 -0.093 -0.076 0 0
507 3 -0.094 -0.075 0 0
508 3 -0.093 -0.075 0 0
409 3 -0.092 -0.076 0 0
410 3 -0.091 -0.076 0 0
509 3 -0.092 -0.075 0 0
510 3 -0.091 -0.075 0 0
411 3 -0.09 -0.076 0 0
511 3 -0.09 -0.075 0 0
412 3 -0.089 -0.076 0 0
413 3 -0.088 -0.076 0 0
512 3 -0.089 -0.075 0 0
513 3 -0.088 -0.075 0 0
414 3 -0.087 -0.076 0 0
415 3 -0.086 -0.076 0 0
514 3 -0.087 -0.075 0 0
515 3 -0.086 -0.075 0 0
416 3 -0.085 -0.076 0 0
516 3 -0.085 -0.075 0 0
417 3 -0.084 -0.076 0 0
418 3 -0.083 -0.076 0 0
517 3 -0.084 -0.075 0 0
518 3 -0.083 -0.075 0 0
419 3 -0.082 -0.076 0 0
420 3 -0.081 -0.076 0 0
519 3 -0.082 -0.075 0 0
520 3 -0.081 -0.075 0 0
421 3 -0.08 -0.076 0 0
521 3 -0.08 -0.075 0 0
422 3 -0.079 -0.076 0 0
423 3 -0.078 -0.076 0 0
522 3 -0.079 -0.075 0 0
523 3 -0.078 -0.075 0 0
424 3 -0.077 -0.076 0 0
524 3 -0.077 -0.075 0 0
425 3 -0.076 -0.076 0 0
525 3 -0.076 -0.075 0 0
426 3 -0.075 -0.076 0 0
526 3 -0.075 -0.075 0 0
427 3 -0.074 -0.076 0 0
428 3 -0.073 -0.076 0 0
527 3 -0.074 -0.075 0 0
528 3 -0.073 -0.075 0 0
429 3 -0.072 -0.076 0 0
529 3 -0.072 -0.075 0 0
430 3 -0.071 -0.076 0 0
530 3 -0.071 -0.075 0 0
431 3 -0.07 -0.076 0 0
531 3 -0.07 -0.075 0 0
432 3 -0.069 -0.076 0 0
433 3 -0.068 -0.076 0 0
532 3 -0.069 -0.075 0 0
533 3 -0.068 -0.075 0 0
434 3 -0.067 -0.076 0 0
534 3 -0.067 -0.075 0 0
435 3 -0.066 -0.076 0 0
535 3 -0.066 -0.075 0 0
436 3 -0.065 -0.076 0 0
536 3 -0.065 -0.075 0 0
437 3 -0.064 -0.076 0 0
438 3 -0.063 -0.076 0 0
537 3 -0.064 -0.075 0 0
538 3 -0.063 -0.075 0 0
439 3 -0.062 -0.076 0 0
539 3 -0.062 -0.075 0 0
440 3 -0.061 -0.076 0 0
540 3 -0.061 -0.075 0 0
441 3 -0.06 -0.076 0 0
541 3 -0.06 -0.075 0 0
442 3 -0.059 -0.076 0 0
542 3 -0.059 -0.075 0 0
443 3 -0.058 -0.076 0 0
543 3 -0.058 -0.075 0 0
444 3 -0.057 -0.076 0 0
544 3 -0.057 -0.075 0 0
445 3 -0.056 -0.076 0 0
545 3 -0.056 -0.075 0 0
446 3 -0.055 -0.076 0 0
546 3 -0.055 -0.075 0 0
447 3 -0.054 -0.076 0 0
547 3 -0.054 -0.075 0 0
448 3 -0.053 -0.076 0 0
548 3 -0.053 -0.075 0 0
449 3 -0.052 -0.076 0 0
549 3 -0.052 -0.075 0 0
450 3 -0.051 -0.076 0 0
550 3 -0.051 -0.075 0 0
451 3 -0.05 -0.076 0 0
551 3 -0.05 -0.075 0 0
452 3 -0.049 -0.076 0 0
552 3 -0.049 -0.075 0 0
453 3 -0.048 -0.076 0 0
553 3 -0.048 -0.075 0 0
454 3 -0.047 -0.076 0 0
554 3 -0.047 -0.075 0 0
455 3 -0.046 -0.076 0 0
555 3 -0.046 -0.075 0 0
456 3 -0.045 -0.076 0 0
556 3 -0.045 -0.075 0 0
457 3 -0.044 -0.076 0 0
557 3 -0.044 -0.075 0 0
458 3 -0.043 -0.076 0 0
558 3 -0.043 -0.075 0 0
459 3 -0.042 -0.076 0 0
559 3 -0.042 -0.075 0 0
460 3 -0.041 -0.076 0 0
560 3 -0.041 -0.075 0 0
461 3 -0.04 -0.076 0 0
561 3 -0.04 -0.075 0 0
462 3 -0.039 -0.076 0 0
562 3 -0.039 -0.075 0 0
463 3 -0.038 -0.076 0 0
563 3 -0.038 -0.075 0 0
464 3 -0.037 -0.076 0 0
465 3 -0.036 -0.076 0 0
564 3 -0.037 -0.075 0 0
565 3 -0.036 -0.075 0 0
466 3 -0.035 -0.076 0 0
566 3 -0.035 -0.075 0 0
467 3 -0.034 -0.076 0 0
567 3 -0.034 -0.075 0 0
468 3 -0.033 -0.076 0 0
568 3 -0.033 -0.075 0 0
469 3 -0.032 -0.076 0 0
470 3 -0.031 -0.076 0 0
569 3 -0.032 -0.075 0 0
570 3 -0.031 -0.075 0 0
471 3 -0.03 -0.076 0 0
571 3 -0.03 -0.075 0 0
472 3 -0.029 -0.076 0 0
572 3 -0.029 -0.075 0 0
473 3 -0.028 -0.076 0 0
573 3 -0.028 -0.075 0 0
474 3 -0.027 -0.076 0 0
475 3 -0.026 -0.076 0 0
574 3 -0.027 -0.075 0 0
575 3 -0.026 -0.075 0 0
476 3 -0.025 -0.076 0 0
576 3 -0.025 -0.075 0 0
477 3 -0.024 -0.076 0 0
577 3 -0.024 -0.075 0 0
478 3 -0.023 -0.076 0 0
578 3 -0.023 -0.075 0 0
479 3 -0.022 -0.076 0 0
480 3 -0.021 -0.076 0 0
579 3 -0.022 -0.075 0 0
580 3 -0.021 -0.075 0 0
481 3 -0.02 -0.076 0 0
581 3 -0.02 -0.075 0 0
482 3 -0.019 -0.076 0 0
582 3 -0.019 -0.075 0 0
483 3 -0.018 -0.076 0 0
583 3 -0.018 -0.075 0 0
484 3 -0.017 -0.076 0 0
485 3 -0.016 -0.076 0 0
584 3 -0.017 -0.075 0 0
585 3 -0.016 -0.075 0 0
486 3 -0.015 -0.076 0 0
586 3 -0.015 -0.075 0 0
487 3 -0.014 -0.076 0 0
488 3 -0.013 -0.076 0 0
587 3 -0.014 -0.075 0 0
588 3 -0.013 -0.075 0 0
489 3 -0.012 -0.076 0 0
490 3 -0.011 -0.076 0 0
589 3 -0.012 -0.075 0 0
590 3 -0.011 -0.075 0 0
491 3 -0.01 -0.076 0 0
591 3 -0.01 -0.075 0 0
492 3 -0.009 -0.076 0 0
493 3 -0.008 -0.076 0 0
592 3 -0.009 -0.075 0 0
593 3 -0.008 -0.075 0 0
494 3 -0.007 -0.076 0 0
495 3 -0.006 -0.076 0 0
594 3 -0.007 -0.075 0 0
595 3 -0.006 -0.075 0 0
496 3 -0.005 -0.076 0 0
596 3 -0.005 -0.075 0 0
497 3 -0.004 -0.076 0 0
498 3 -0.003 -0.076 0 0
597 3 -0.004 -0.075 0 0
598 3 -0.003 -0.075 0 0
499 3 -0.002 -0.076 0 0
500 3 -0.001 -0.076 0 0
599 3 -0.002 -0.075 0 0
600 3 -0.001 -0.075 0 0
601 3 -0.1 -0.074 0 0
602 3 -0.099 -0.074 0 0
603 3 -0.098 -0.074 0 0
701 3 -0.1 -0.073 0 0
702 3 -0.099 -0.073 0 0
703 3 -0.098 -0.073 0 0
801 3 -0.1 -0.072 0 0
802 3 -0.099 -0.072 0 0
803 3 -0.098 -0.072 0 0
604 3 -0.097 -0.074 0 0
605 3 -0.096 -0.074 0 0
704 3 -0.097 -0.073 0 0
705 3 -0.096 -0.073 0 0
804 3 -0.097 -0.072 0 0
805 3 -0.096 -0.072 0 0
606 3 -0.095 -0.074 0 0
607 3 -0.094 -0.074 0 0
608 3 -0.093 -0.074 0 0
706 3 -0.095 -0.073 0 0
806 3 -0.095 -0.072 0 0
707 3 -0.094 -0.073 0 0
708 3 -0.093 -0.073 0 0
807 3 -0.094 -0.072 0 0
808 3 -0.093 -0.072 0 0
609 3 -0.092 -0.074 0 0
610 3 -0.091 -0.074 0 0
709 3 -0.092 -0.073 0 0
710 3 -0.091 -0.073 0 0
809 3 -0.092 -0.072 0 0
810 3 -0.091 -0.072 0 0
611 3 -0.09 -0.074 0 0
612 3 -0.089 -0.074 0 0
613 3 -0.088 -0.074 0 0
711 3 -0.09 -0.073 0 0
811 3 -0.09 -0.072 0 0
712 3 -0.089 -0.073 0 0
713 3 -0.088 -0.073 0 0
812 3 -0.089 -0.072 0 0
813 3 -0.088 -0.072 0 0
614 3 -0.087 -0.074 0 0
615 3 -0.086 -0.074 0 0
714 3 -0.087 -0.073 0 0
715 3 -0.086 -0.073 0 0
814 3 -0.087 -0.072 0 0
815 3 -0.086 -0.072 0 0
616 3 -0.085 -0.074 0 0
617 3 -0.084 -0.074 0 0
618 3 -0.083 -0.074 0 0
716 3 -0.085 -0.073 0 0
816 3 -0.085 -0.072 0 0
717 3 -0.084 -0.073 0 0
718 3 -0.083 -0.073 0 0
817 3 -0.084 -0.072 0 0
818 3 -0.083 -0.072 0 0
619 3 -0.082 -0.074 0 0
620 3 -0.081 -0.074 0 0
719 3 -0.082 -0.073 0 0
720 3 -0.081 -0.073 0 0
819 3 -0.082 -0.072 0 0
820 3 -0.081 -0.072 0 0
621 3 -0.08 -0.074 0 0
622 3 -0.079 -0.074 0 0
623 3 -0.078 -0.074 0 0
721 3 -0.08 -0.073 0 0
821 3 -0.08 -0.072 0 0
722 3 -0.079 -0.073 0 0
723 3 -0.078 -0.073 0 0
822 3 -0.079 -0.072 0 0
823 3 -0.078 -0.072 0 0
624 3 -0.077 -0.074 0 0
625 3 -0.076 -0.074 0 0
724 3 -0.077 -0.073 0 0
824 3 -0.077 -0.072 0 0
725 3 -0.076 -0.073 0 0
825 3 -0.076 -0.072 0 0
626 3 -0.075 -0.074 0 0
627 3 -0.074 -0.074 0 0
628 3 -0.073 -0.074 0 0
726 3 -0.075 -0.073 0 0
826 3 -0.075 -0.072 0 0
727 3 -0.074 -0.073 0 0
728 3 -0.073 -0.073 0 0
827 3 -0.074 -0.072 0 0
828 3 -0.073 -0.072 0 0
629 3 -0.072 -0.074 0 0
630 3 -0.071 -0.074 0 0
729 3 -0.072 -0.073 0 0
829 3 -0.072 -0.072 0 0
730 3 -0.071 -0.073 0 0
830 3 -0.071 -0.072 0 0
631 3 -0.07 -0.074 0 0
632 3 -0.069 -0.074 0 0
633 3 -0.068 -0.074 0 0
731 3 -0.07 -0.073 0 0
831 3 -0.07 -0.072 0 0
732 3 -0.069 -0.073 0 0
733 3 -0.068 -0.073 0 0
832 3 -0.069 -0.072 0 0
833 3 -0.068 -0.072 0 0
634 3 -0.067 -0.074 0 0
635 3 -0.066 -0.074 0 0
734 3 -0.067 -0.073 0 0
834 3 -0.067 -0.072 0 0
735 3 -0.066 -0.073 0 0
835 3 -0.066 -0.072 0 0
636 3 -0.065 -0.074 0 0
637 3 -0.064 -0.074 0 0
638 3 -0.063 -0.074 0 0
736 3 -0.065 -0.073 0 0
836 3 -0.065 -0.072 0 0
737 3 -0.064 -0.073 0 0
738 3 -0.063 -0.073 0 0
837 3 -0.064 -0.072 0 0
838 3 -0.063 -0.072 0 0
639 3 -0.062 -0.074 0 0
640 3 -0.061 -0.074 0 0
739 3 -0.062 -0.073 0 0
839 3 -0.062 -0.072 0 0
740 3 -0.061 -0.073 0 0
840 3 -0.061 -0.072 0 0
641 3 -0.06 -0.074 0 0
642 3 -0.059 -0.074 0 0
643 3 -0.058 -0.074 0 0
741 3 -0.06 -0.073 0 0
841 3 -0.06 -0.072 0 0
742 3 -0.059 -0.073 0 0
842 3 -0.059 -0.072 0 0
743 3 -0.058 -0.073 0 0
843 3 -0.058 -0.072 0 0
644 3 -0.057 -0.074 0 0
645 3 -0.056 -0.074 0 0
744 3 -0.057 -0.073 0 0
844 3 -0.057 -0.072 0 0
745 3 -0.056 -0.073 0 0
845 3 -0.056 -0.072 0 0
646 3 -0.055 -0.074 0 0
647 3 -0.054 -0.074 0 0
648 3 -0.053 -0.074 0 0
746 3 -0.055 -0.073 0 0
747 3 -0.054 -0.073 0 0
846 3 -0.055 -0.072 0 0
847 3 -0.054 -0.072 0 0
748 3 -0.053 -0.073 0 0
848 3 -0.053 -0.072 0 0
649 3 -0.052 -0.074 0 0
650 3 -0.051 -0.074 0 0
749 3 -0.052 -0.073 0 0
849 3 -0.052 -0.072 0 0
750 3 -0.051 -0.073 0 0
850 3 -0.051 -0.072 0 0
651 3 -0.05 -0.074 0 0
652 3 -0.049 -0.074 0 0
653 3 -0.048 -0.074 0 0
751 3 -0.05 -0.073 0 0
752 3 -0.049 -0.073 0 0
851 3 -0.05 -0.072 0 0
852 3 -0.049 -0.072 0 0
753 3 -0.048 -0.073 0 0
853 3 -0.048 -0.072 0 0
654 3 -0.047 -0.074 0 0
655 3 -0.046 -0.074 0 0
754 3 -0.047 -0.073 0 0
854 3 -0.047 -0.072 0 0
755 3 -0.046 -0.073 0 0
855 3 -0.046 -0.072 0 0
656 3 -0.045 -0.074 0 0
657 3 -0.044 -0.074 0 0
658 3 -0.043 -0.074 0 0
756 3 -0.045 -0.073 0 0
757 3 -0.044 -0.073 0 0
856 3 -0.045 -0.072 0 0
857 3 -0.044 -0.072 0 0
758 3 -0.043 -0.073 0 0
858 3 -0.043 -0.072 0 0
659 3 -0.042 -0.074 0 0
660 3 -0.041 -0.074 0 0
759 3 -0.042 -0.073 0 0
859 3 -0.042 -0.072 0 0
760 3 -0.041 -0.073 0 0
860 3 -0.041 -0.072 0 0
661 3 -0.04 -0.074 0 0
662 3 -0.039 -0.074 0 0
663 3 -0.038 -0.074 0 0
761 3 -0.04 -0.073 0 0
762 3 -0.039 -0.073 0 0
861 3 -0.04 -0.072 0 0
862 3 -0.039 -0.072 0 0
763 3 -0.038 -0.073 0 0
863 3 -0.038 -0.072 0 0
664 3 -0.037 -0.074 0 0
665 3 -0.036 -0.074 0 0
764 3 -0.037 -0.073 0 0
765 3 -0.036 -0.073 0 0
864 3 -0.037 -0.072 0 0
865 3 -0.036 -0.072 0 0
666 3 -0.035 -0.074 0 0
667 3 -0.034 -0.074 0 0
668 3 -0.033 -0.074 0 0
766 3 -0.035 -0.073 0 0
767 3 -0.034 -0.073 0 0
866 3 -0.035 -0.072 0 0
867 3 -0.034 -0.072 0 0
768 3 -0.033 -0.073 0 0
868 3 -0.033 -0.072 0 0
669 3 -0.032 -0.074 0 0
670 3 -0.031 -0.074 0 0
769 3 -0.032 -0.073 0 0
770 3 -0.031 -0.073 0 0
869 3 -0.032 -0.072 0 0
870 3 -0.031 -0.072 0 0
671 3 -0.03 -0.074 0 0
672 3 -0.029 -0.074 0 0
673 3 -0.028 -0.074 0 0
771 3 -0.03 -0.073 0 0
772 3 -0.029 -0.073 0 0
871 3 -0.03 -0.072 0 0
872 3 -0.029 -0.072 0 0
773 3 -0.028 -0.073 0 0
873 3 -0.028 -0.072 0 0
674 3 -0.027 -0.074 0 0
675 3 -0.026 -0.074 0 0
774 3 -0.027 -0.073 0 0
775 3 -0.026 -0.073 0 0
874 3 -0.027 -0.072 0 0
875 3 -0.026 -0.072 0 0
676 3 -0.025 -0.074 0 0
677 3 -0.024 -0.074 0 0
678 3 -0.023 -0.074 0 0
776 3 -0.025 -0.073 0 0
777 3 -0.024 -0.073 0 0
876 3 -0.025 -0.072 0 0
877 3 -0.024 -0.072 0 0
778 3 -0.023 -0.073 0 0
878 3 -0.023 -0.072 0 0
679 3 -0.022 -0.074 0 0
680 3 -0.021 -0.074 0 0
779 3 -0.022 -0.073 0 0
780 3 -0.021 -0.073 0 0
879 3 -0.022 -0.072 0 0
880 3 -0.021 -0.072 0 0
681 3 -0.02 -0.074 0 0
682 3 -0.019 -0.074 0 0
683 3 -0.018 -0.074 0 0
781 3 -0.02 -0.073 0 0
782 3 -0.019 -0.073 0 0
881 3 -0.02 -0.072 0 0
882 3 -0.019 -0.072 0 0
783 3 -0.018 -0.073 0 0
883 3 -0.018 -0.072 0 0
684 3 -0.017 -0.074 0 0
685 3 -0.016 -0.074 0 0
784 3 -0.017 -0.073 0 0
785 3 -0.016 -0.073 0 0
884 3 -0.017 -0.072 0 0
885 3 -0.016 -0.072 0 0
686 3 -0.015 -0.074 0 0
687 3 -0.014 -0.074 0 0
688 3 -0.013 -0.074 0 0
786 3 -0.015 -0.073 0 0
787 3 -0.014 -0.073 0 0
788 3 -0.013 -0.073 0 0
886 3 -0.015 -0.072 0 0
887 3 -0.014 -0.072 0 0
888 3 -0.013 -0.072 0 0
689 3 -0.012 -0.074 0 0
690 3 -0.011 -0.074 0 0
789 3 -0.012 -0.073 0 0
790 3 -0.011 -0.073 0 0
889 3 -0.012 -0.072 0 0
890 3 -0.011 -0.072 0 0
691 3 -0.01 -0.074 0 0
692 3 -0.009 -0.074 0 0
693 3 -0.008 -0.074 0 0
791 3 -0.01 -0.073 0 0
792 3 -0.009 -0.073 0 0
793 3 -0.008 -0.073 0 0
891 3 -0.01 -0.072 0 0
892 3 -0.009 -0.072 0 0
893 3 -0.008 -0.072 0 0
694 3 -0.007 -0.074 0 0
695 3 -0.006 -0.074 0 0
794 3 -0.007 -0.073 0 0
795 3 -0.006 -0.073 0 0
894 3 -0.007 -0.072 0 0
895 3 -0.006 -0.072 0 0
696 3 -0.005 -0.074 0 0
697 3 -0.004 -0.074 0 0
698 3 -0.003 -0.074 0 0
796 3 -0.005 -0.073 0 0
797 3 -0.004 -0.073 0 0
798 3 -0.003 -0.073 0 0
896 3 -0.005 -0.072 0 0
897 3 -0.004 -0.072 0 0
898 3 -0.003 -0.072 0 0
699 3 -0.002 -0.074 0 0
700 3 -0.001 -0.074 0 0
799 3 -0.002 -0.073 0 0
800 3 -0.001 -0.073 0 0
899 3 -0.002 -0.072 0 0
900 3 -0.001 -0.072 0 0
901 3 -0.1 -0.071 0 0
902 3 -0.099 -0.071 0 0
903 3 -0.098 -0.071 0 0
1001 3 -0.1 -0.07 0 0
1002 3 -0.099 -0.07 0 0
1003 3 -0.098 -0.07 0 0
904 3 -0.097 -0.071 0 0
905 3 -0.096 -0.071 0 0
1004 3 -0.097 -0.07 0 0
1005 3 -0.096 -0.07 0 0
906 3 -0.095 -0.071 0 0
907 3 -0.094 -0.071 0 0
908 3 -0.093 -0.071 0 0
1006 3 -0.095 -0.07 0 0
1007 3 -0.094 -0.07 0 0
1008 3 -0.093 -0.07 0 0
909 3 -0.092 -0.071 0 0
910 3 -0.091 -0.071 0 0
1009 3 -0.092 -0.07 0 0
1010 3 -0.091 -0.07 0 0
911 3 -0.09 -0.071 0 0
912 3 -0.089 -0.071 0 0
913 3 -0.088 -0.071 0 0
1011 3 -0.09 -0.07 0 0
1012 3 -0.089 -0.07 0 0
1013 3 -0.088 -0.07 0 0
914 3 -0.087 -0.071 0 0
915 3 -0.086 -0.071 0 0
1014 3 -0.087 -0.07 0 0
1015 3 -0.086 -0.07 0 0
916 3 -0.085 -0.071 0 0
917 3 -0.084 -0.071 0 0
918 3 -0.083 -0.071 0 0
1016 3 -0.085 -0.07 0 0
1017 3 -0.084 -0.07 0 0
1018 3 -0.083 -0.07 0 0
919 3 -0.082 -0.071 0 0
920 3 -0.081 -0.071 0 0
1019 3 -0.082 -0.07 0 0
1020 3 -0.081 -0.07 0 0
921 3 -0.08 -0.071 0 0
922 3 -0.079 -0.071 0 0
923 3 -0.078 -0.071 0 0
1021 3 -0.08 -0.07 0 0
1022 3 -0.079 -0.07 0 0
1023 3 -0.078 -0.07 0 0
924 3 -0.077 -0.071 0 0
925 3 -0.076 -0.071 0 0
1024 3 -0.077 -0.07 0 0
1025 3 -0.076 -0.07 0 0
926 3 -0.075 -0.071 0 0
927 3 -0.074 -0.071 0 0
928 3 -0.073 -0.071 0 0
1026 3 -0.075 -0.07 0 0
1027 3 -0.074 -0.07 0 0
1028 3 -0.073 -0.07 0 0
929 3 -0.072 -0.071 0 0
930 3 -0.071 -0.071 0 0
1029 3 -0.072 -0.07 0 0
1030 3 -0.071 -0.07 0 0
931 3 -0.07 -0.071 0 0
932 3 -0.069 -0.071 0 0
933 3 -0.068 -0.071 0 0
1031 3 -0.07 -0.07 0 0
1032 3 -0.069 -0.07 0 0
1033 3 -0.068 -0.07 0 0
934 3 -0.067 -0.071 0 0
935 3 -0.066 -0.071 0 0
1034 3 -0.067 -0.07 0 0
1035 3 -0.066 -0.07 0 0
936 3 -0.065 -0.071 0 0
937 3 -0.064 -0.071 0 0
938 3 -0.063 -0.071 0 0
1036 3 -0.065 -0.07 0 0
1037 3 -0.064 -0.07 0 0
1038 3 -0.063 -0.07 0 0
939 3 -0.062 -0.071 0 0
940 3 -0.061 -0.071 0 0
1039 3 -0.062 -0.07 0 0
1040 3 -0.061 -0.07 0 0
941 3 -0.06 -0.071 0 0
942 3 -0.059 -0.071 0 0
943 3 -0.058 -0.071 0 0
1041 3 -0.06 -0.07 0 0
1042 3 -0.059 -0.07 0 0
1043 3 -0.058 -0.07 0 0
944 3 -0.057 -0.071 0 0
945 3 -0.056 -0.071 0 0
1044 3 -0.057 -0.07 0 0
1045 3 -0.056 -0.07 0 0
946 3 -0.055 -0.071 0 0
947 3 -0.054 -0.071 0 0
948 3 -0.053 -0.071 0 0
1046 3 -0.055 -0.07 0 0
1047 3 -0.054 -0.07 0 0
1048 3 -0.053 -0.07 0 0
949 3 -0.052 -0.071 0 0
950 3 -0.051 -0.071 0 0
1049 3 -0.052 -0.07 0 0
1050 3 -0.051 -0.07 0 0
951 3 -0.05 -0.071 0 0
952 3 -0.049 -0.071 0 0
953 3 -0.048 -0.071 0 0
1051 3 -0.05 -0.07 0 0
1052 3 -0.049 -0.07 0 0
1053 3 -0.048 -0.07 0 0
954 3 -0.047 -0.071 0 0
955 3 -0.046 -0.071 0 0
1054 3 -0.047 -0.07 0 0
1055 3 -0.046 -0.07 0 0
956 3 -0.045 -0.071 0 0
957 3 -0.044 -0.071 0 0
958 3 -0.043 -0.071 0 0
1056 3 -0.045 -0.07 0 0
1057 3 -0.044 -0.07 0 0
1058 3 -0.043 -0.07 0 0
959 3 -0.042 -0.071 0 0
960 3 -0.041 -0.071 0 0
1059 3 -0.042 -0.07 0 0
1060 3 -0.041 -0.07 0 0
961 3 -0.04 -0.071 0 0
962 3 -0.039 -0.071 0 0
963 3 -0.038 -0.071 0 0
1061 3 -0.04 -0.07 0 0
1062 3 -0.039 -0.07 0 0
1063 3 -0.038 -0.07 0 0
964 3 -0.037 -0.071 0 0
965 3 -0.036 -0.071 0 0
1064 3 -0.037 -0.07 0 0
1065 3 -0.036 -0.07 0 0
966 3 -0.035 -0.071 0 0
967 3 -0.034 -0.071 0 0
968 3 -0.033 -0.071 0 0
1066 3 -0.035 -0.07 0 0
1067 3 -0.034 -0.07 0 0
1068 3 -0.033 -0.07 0 0
969 3 -0.032 -0.071 0 0
970 3 -0.031 -0.071 0 0
1069 3 -0.032 -0.07 0 0
1070 3 -0.031 -0.07 0 0
971 3 -0.03 -0.071 0 0
972 3 -0.029 -0.071 0 0
973 3 -0.028 -0.071 0 0
1071 3 -0.03 -0.07 0 0
1072 3 -0.029 -0.07 0 0
1073 3 -0.028 -0.07 0 0
974 3 -0.027 -0.071 0 0
975 3 -0.026 -0.071 0 0
1074 3 -0.027 -0.07 0 0
1075 3 -0.026 -0.07 0 0
976 3 -0.025 -0.071 0 0
977 3 -0.024 -0.071 0 0
978 3 -0.023 -0.071 0 0
1076 3 -0.025 -0.07 0 0
1077 3 -0.024 -0.07 0 0
1078 3 -0.023 -0.07 0 0
979 3 -0.022 -0.071 0 0
980 3 -0.021 -0.071 0 0
1079 3 -0.022 -0.07 0 0
1080 3 -0.021 -0.07 0 0
981 3 -0.02 -0.071 0 0
982 3 -0.019 -0.071 0 0
983 3 -0.018 -0.071 0 0
1081 3 -0.02 -0.07 0 0
1082 3 -0.019 -0.07 0 0
1083 3 -0.018 -0.07 0 0
984 3 -0.017 -0.071 0 0
985 3 -0.016 -0.071 0 0
1084 3 -0.017 -0.07 0 0
1085 3 -0.016 -0.07 0 0
986 3 -0.015 -0.071 0 0
987 3 -0.014 -0.071 0 0
988 3 -0.013 -0.071 0 0
1086 3 -0.015 -0.07 0 0
1087 3 -0.014 -0.07 0 0
1088 3 -0.013 -0.07 0 0
989 3 -0.012 -0.071 0 0
990 3 -0.011 -0.071 0 0
1089 3 -0.012 -0.07 0 0
1090 3 -0.011 -0.07 0 0
991 3 -0.01 -0.071 0 0
992 3 -0.009 -0.071 0 0
993 3 -0.008 -0.071 0 0
1091 3 -0.01 -0.07 0 0
1092 3 -0.009 -0.07 0 0
1093 3 -0.008 -0.07 0 0
994 3 -0.007 -0.071 0 0
995 3 -0.006 -0.071 0 0
1094 3 -0.007 -0.07 0 0
1095 3 -0.006 -0.07 0 0
996 3 -0.005 -0.071 0 0
997 3 -0.004 -0.071 0 0
998 3 -0.003 -0.071 0 0
1096 3 -0.005 -0.07 0 0
1097 3 -0.004 -0.07 0 0
1098 3 -0.003 -0.07 0 0
999 3 -0.002 -0.071 0 0
1000 3 -0.001 -0.071 0 0
1099 3 -0.002 -0.07 0 0
1100 3 -0.001 -0.07 0 0
1797 1 -0.0999283 -0.0673798 -0.0247271 0.0401307
7998 1 -0.099508 -0.068129 -0.0443347 0.0105875
1800 1 -0.098962 -0.0681459 -0.0405724 0.00649513
1849 1 -0.0983893 -0.0672197 -0.0342785 0.0156413
1948 1 -0.098162 -0.0681546 -0.0479509 0.00614043
1850 1 -0.0975054 -0.0682218 -0.0438864 0.00439519
1899 1 -0.0969808 -0.0681008 -0.0472678 0.00402298
1998 1 -0.0962997 -0.0677323 -0.055004 0.0412222
2098 1 -0.0957298 -0.0682012 -0.0745651 -0.000776123
2048 1 -0.0951878 -0.068134 -0.0778847 -0.00900694
2148 1 -0.0945668 -0.0681829 -0.0762513 0.00310164
2199 1 -0.0941235 -0.0668485 -0.0722636 0.0120074
2100 1 -0.0938903 -0.0681905 -0.0788202 0.00278016
2197 1 -0.093255 -0.0680999 -0.0782873 -0.000300763
2150 1 -0.0926063 -0.0681598 -0.0784294 0.00123188
2250 1 -0.0924348 -0.0669775 -0.0844284 0.00981343
2050 1 -0.0919192 -0.0681301 -0.0805668 0.00434785
2248 1 -0.0912833 -0.0682323 -0.0767766 0.00301845
2200 1 -0.0911665 -0.0671363 -0.098167 0.0146892
2299 1 -0.0905677 -0.068167 -0.0871853 0.00707362
2300 1 -0.090031 -0.0677544 -0.092605 0.0430386
2347 1 -0.0894422 -0.068196 -0.107083 0.0034895
2297 1 -0.0888318 -0.0681805 -0.10627 -0.00305536
2350 1 -0.0885104 -0.067219 -0.108797 0.00989488
2397 1 -0.0880337 -0.0681361 -0.113887 0.00240116
2395 1 -0.0874246 -0.0681909 -0.108638 0.00108369
2448 1 -0.0868554 -0.0681898 -0.112161 0.000898489
2450 1 -0.0863223 -0.0676854 -0.132018 0.0515397
2447 1 -0.0857143 -0.0681511 -0.148839 0.00126915
2348 1 -0.085111 -0.0681656 -0.149043 0.000690266
2449 1 -0.0848101 -0.0672263 -0.137452 0.016023
2500 1 -0.0843503 -0.0682112 -0.154403 0.000949604
2499 1 -0.0836916 -0.0681741 -0.157305 0.000163359
9120 1 -0.0840197 -0.0668921 -0.157819 0.016218
2600 1 -0.0831012 -0.0679976 -0.154718 -0.00206094
9171 1 -0.0832812 -0.0667389 -0.157878 0.018291
9222 1 -0.0824102 -0.0668819 -0.163075 0.0191565
2548 1 -0.08223 -0.068148 -0.17491 -0.00472028
2545 1 -0.0817385 -0.0681944 -0.166562 -0.00205361
2596 1 -0.081416 -0.0670858 -0.181661 0.0134153
2597 1 -0.0809348 -0.0681225 -0.181175 0.0018772
2598 1 -0.0803517 -0.0681051 -0.176582 0.00230274
2646 1 -0.0799779 -0.0667694 -0.189573 0.019215
2647 1 -0.0796342 -0.0681999 -0.185657 0.00272146
2645 1 -0.0791049 -0.0680873 -0.178841 -0.00216968
2648 1 -0.0790395 -0.0671085 -0.199514 0.0323489
2549 1 -0.0781243 -0.0670858 -0.208903 0.0243245
2697 1 -0.0780643 -0.068113 -0.219883 -0.00472118
2695 1 -0.0775372 -0.0682172 -0.2127 0.00260296
2698 1 -0.0768631 -0.0681122 -0.219141 0.00572002
2550 1 -0.0763147 -0.0669052 -0.207667 0.0161741
2649 1 -0.0761681 -0.0680511 -0.220438 0.00153209
2696 1 -0.0755181 -0.0681313 -0.216951 -0.0092902
2699 1 -0.075099 -0.0671896 -0.244975 0.0159014
2749 1 -0.0747334 -0.0681317 -0.22987 -0.00271646
2748 1 -0.07405 -0.0669059 -0.273277 0.033939
2747 1 -0.0741564 -0.0681011 -0.233524 0.00375951
2798 1 -0.0734043 -0.067643 -0.245791 0.0572797
2797 1 -0.0728515 -0.068134 -0.277884 -0.00646374
2847 1 -0.0723274 -0.0682607 -0.283956 -0.00576588
2848 1 -0.0717494 -0.0680738 -0.278923 4.36055e-05
2849 1 -0.0712912 -0.0673342 -0.291705 0.0314678
2950 1 -0.0707775 -0.0681014 -0.309645 -0.00263486
2850 1 -0.0701928 -0.0671411 -0.307508 0.0209489
2899 1 -0.0701215 -0.0681991 -0.309799 0.000352776
2750 1 -0.0694177 -0.0680758 -0.312845 0.00218955
2700 1 -0.0690931 -0.0671125 -0.32829 0.0171213
2898 1 -0.068667 -0.0681766 -0.319928 0.00370958
2948 1 -0.0680865 -0.0681251 -0.316486 0.00866996
2843 1 -0.0675873 -0.0675401 -0.336641 0.0504638
2949 1 -0.0670302 -0.0681457 -0.357541 0.00629453
2900 1 -0.0665155 -0.0681801 -0.352607 0.00119242
9273 1 -0.0659402 -0.0667802 -0.348736 0.0121229