ITEM: TIME
0.13
ITEM: TIMESTEP
13000
ITEM: NUMBER OF ATOMS
13699
ITEM: BOX BOUNDS pp pp pp
-1.0000000000000001e-01 1.0000000000000001e-01
-2.0000000000000001e-01 1.1000000000000000e-01
-1.0000000000000000e-02 1.0000000000000000e-02
ITEM: ATOMS id type x y vx vy
1 3 -0.1 -0.08 0 0
2 3 -0.099 -0.08 0 0
3 3 -0.098 -0.08 0 0
4 3 -0.097 -0.08 0 0
5 3 -0.096 -0.08 0 0
6 3 -0.095 -0.08 0 0
7 3 -0.094 -0.08 0 0
8 3 -0.093 -0.08 0 0
9 3 -0.092 -0.08 0 0
10 3 -0.091 -0.08 0 0
11 3 -0.09 -0.08 0 0
12 3 -0.089 -0.08 0 0
13 3 -0.088 -0.08 0 0
14 3 -0.087 -0.08 0 0
15 3 -0.086 -0.08 0 0
16 3 -0.085 -0.08 0 0
17 3 -0.084 -0.08 0 0
18 3 -0.083 -0.08 0 0
19 3 -0.082 -0.08 0 0
20 3 -0.081 -0.08 0 0
21 3 -0.08 -0.08 0 0
22 3 -0.079 -0.08 0 0
23 3 -0.078 -0.08 0 0
24 3 -0.077 -0.08 0 0
25 3 -0.076 -0.08 0 0
26 3 -0.075 -0.08 0 0
27 3 -0.074 -0.08 0 0
28 3 -0.073 -0.08 0 0
29 3 -0.072 -0.08 0 0
30 3 -0.071 -0.08 0 0
31 3 -0.07 -0.08 0 0
32 3 -0.069 -0.08 0 0
33 3 -0.068 -0.08 0 0
34 3 -0.067 -0.08 0 0
35 3 -0.066 -0.08 0 0
36 3 -0.065 -0.08 0 0
37 3 -0.064 -0.08 0 0
38 3 -0.063 -0.08 0 0
39 3 -0.062 -0.08 0 0
40 3 -0.061 -0.08 0 0
41 3 -0.06 -0.08 0 0
42 3 -0.059 -0.08 0 0
43 3 -0.058 -0.08 0 0
44 3 -0.057 -0.08 0 0
45 3 -0.056 -0.08 0 0
46 3 -0.055 -0.08 0 0
47 3 -0.054 -0.08 0 0
48 3 -0.053 -0.08 0 0
49 3 -0.052 -0.08 0 0
50 3 -0.051 -0.08 0 0
51 3 -0.05 -0.08 0 0
52 3 -0.049 -0.08 0 0
53 3 -0.048 -0.08 0 0
54 3 -0.047 -0.08 0 0
55 3 -0.046 -0.08 0 0
56 3 -0.045 -0.08 0 0
57 3 -0.044 -0.08 0 0
58 3 -0.043 -0.08 0 0
59 3 -0.042 -0.08 0 0
60 3 -0.041 -0.08 0 0
61 3 -0.04 -0.08 0 0
62 3 -0.039 -0.08 0 0
63 3 -0.038 -0.08 0 0
64 3 -0.037 -0.08 0 0
65 3 -0.036 -0.08 0 0
66 3 -0.035 -0.08 0 0
67 3 -0.034 -0.08 0 0
68 3 -0.033 -0.08 0 0
69 3 -0.032 -0.08 0 0
70 3 -0.031 -0.08 0 0
71 3 -0.03 -0.08 0 0
72 3 -0.029 -0.08 0 0
73 3 -0.028 -0.08 0 0
74 3 -0.027 -0.08 0 0
75 3 -0.026 -0.08 0 0
76 3 -0.025 -0.08 0 0
77 3 -0.024 -0.08 0 0
78 3 -0.023 -0.08 0 0
79 3 -0.022 -0.08 0 0
80 3 -0.021 -0.08 0 0
81 3 -0.02 -0.08 0 0
82 3 -0.019 -0.08 0 0
83 3 -0.018 -0.08 0 0
84 3 -0.017 -0.08 0 0
85 3 -0.016 -0.08 0 0
86 3 -0.015 -0.08 0 0
87 3 -0.014 -0.08 0 0
88 3 -0.013 -0.08 0 0
89 3 -0.012 -0.08 0 0
90 3 -0.011 -0.08 0 0
91 3 -0.01 -0.08 0 0
92 3 -0.009 -0.08 0 0
93 3 -0.008 -0.08 0 0
94 3 -0.007 -0.08 0 0
95 3 -0.006 -0.08 0 0
96 3 -0.005 -0.08 0 0
97 3 -0.004 -0.08 0 0
98 3 -0.003 -0.08 0 0
99 3 -0.002 -0.08 0 0
100 3 -0.001 -0.08 0 0
101 3 -0.1 -0.079 0 0
102 3 -0.099 -0.079 0 0
103 3 -0.098 -0.079 0 0
201 3 -0.1 -0.078 0 0
202 3 -0.099 -0.078 0 0
203 3 -0.098 -0.078 0 0
301 3 -0.1 -0.077 0 0
302 3 -0.099 -0.077 0 0
303 3 -0.098 -0.077 0 0
104 3 -0.097 -0.079 0 0
105 3 -0.096 -0.079 0 0
204 3 -0.097 -0.078 0 0
205 3 -0.096 -0.078 0 0
304 3 -0.097 -0.077 0 0
305 3 -0.096 -0.077 0 0
106 3 -0.095 -0.079 0 0
107 3 -0.094 -0.079 0 0
108 3 -0.093 -0.079 0 0
206 3 -0.095 -0.078 0 0
207 3 -0.094 -0.078 0 0
208 3 -0.093 -0.078 0 0
306 3 -0.095 -0.077 0 0
307 3 -0.094 -0.077 0 0
308 3 -0.093 -0.077 0 0
109 3 -0.092 -0.079 0 0
110 3 -0.091 -0.079 0 0
209 3 -0.092 -0.078 0 0
210 3 -0.091 -0.078 0 0
309 3 -0.092 -0.077 0 0
310 3 -0.091 -0.077 0 0
111 3 -0.09 -0.079 0 0
112 3 -0.089 -0.079 0 0
113 3 -0.088 -0.079 0 0
211 3 -0.09 -0.078 0 0
212 3 -0.089 -0.078 0 0
213 3 -0.088 -0.078 0 0
311 3 -0.09 -0.077 0 0
312 3 -0.089 -0.077 0 0
313 3 -0.088 -0.077 0 0
114 3 -0.087 -0.079 0 0
115 3 -0.086 -0.079 0 0
214 3 -0.087 -0.078 0 0
215 3 -0.086 -0.078 0 0
314 3 -0.087 -0.077 0 0
315 3 -0.086 -0.077 0 0
116 3 -0.085 -0.079 0 0
117 3 -0.084 -0.079 0 0
118 3 -0.083 -0.079 0 0
216 3 -0.085 -0.078 0 0
217 3 -0.084 -0.078 0 0
218 3 -0.083 -0.078 0 0
316 3 -0.085 -0.077 0 0
317 3 -0.084 -0.077 0 0
318 3 -0.083 -0.077 0 0
119 3 -0.082 -0.079 0 0
120 3 -0.081 -0.079 0 0
219 3 -0.082 -0.078 0 0
220 3 -0.081 -0.078 0 0
319 3 -0.082 -0.077 0 0
320 3 -0.081 -0.077 0 0
121 3 -0.08 -0.079 0 0
122 3 -0.079 -0.079 0 0
123 3 -0.078 -0.079 0 0
221 3 -0.08 -0.078 0 0
222 3 -0.079 -0.078 0 0
223 3 -0.078 -0.078 0 0
321 3 -0.08 -0.077 0 0
322 3 -0.079 -0.077 0 0
323 3 -0.078 -0.077 0 0
124 3 -0.077 -0.079 0 0
125 3 -0.076 -0.079 0 0
224 3 -0.077 -0.078 0 0
225 3 -0.076 -0.078 0 0
324 3 -0.077 -0.077 0 0
325 3 -0.076 -0.077 0 0
126 3 -0.075 -0.079 0 0
127 3 -0.074 -0.079 0 0
128 3 -0.073 -0.079 0 0
226 3 -0.075 -0.078 0 0
227 3 -0.074 -0.078 0 0
228 3 -0.073 -0.078 0 0
326 3 -0.075 -0.077 0 0
327 3 -0.074 -0.077 0 0
328 3 -0.073 -0.077 0 0
129 3 -0.072 -0.079 0 0
130 3 -0.071 -0.079 0 0
229 3 -0.072 -0.078 0 0
230 3 -0.071 -0.078 0 0
329 3 -0.072 -0.077 0 0
330 3 -0.071 -0.077 0 0
131 3 -0.07 -0.079 0 0
132 3 -0.069 -0.079 0 0
133 3 -0.068 -0.079 0 0
231 3 -0.07 -0.078 0 0
232 3 -0.069 -0.078 0 0
233 3 -0.068 -0.078 0 0
331 3 -0.07 -0.077 0 0
332 3 -0.069 -0.077 0 0
333 3 -0.068 -0.077 0 0
134 3 -0.067 -0.079 0 0
135 3 -0.066 -0.079 0 0
234 3 -0.067 -0.078 0 0
235 3 -0.066 -0.078 0 0
334 3 -0.067 -0.077 0 0
335 3 -0.066 -0.077 0 0
136 3 -0.065 -0.079 0 0
137 3 -0.064 -0.079 0 0
138 3 -0.063 -0.079 0 0
236 3 -0.065 -0.078 0 0
237 3 -0.064 -0.078 0 0
238 3 -0.063 -0.078 0 0
336 3 -0.065 -0.077 0 0
337 3 -0.064 -0.077 0 0
338 3 -0.063 -0.077 0 0
139 3 -0.062 -0.079 0 0
140 3 -0.061 -0.079 0 0
239 3 -0.062 -0.078 0 0
240 3 -0.061 -0.078 0 0
339 3 -0.062 -0.077 0 0
340 3 -0.061 -0.077 0 0
141 3 -0.06 -0.079 0 0
142 3 -0.059 -0.079 0 0
143 3 -0.058 -0.079 0 0
241 3 -0.06 -0.078 0 0
242 3 -0.059 -0.078 0 0
243 3 -0.058 -0.078 0 0
341 3 -0.06 -0.077 0 0
342 3 -0.059 -0.077 0 0
343 3 -0.058 -0.077 0 0
144 3 -0.057 -0.079 0 0
145 3 -0.056 -0.079 0 0
244 3 -0.057 -0.078 0 0
245 3 -0.056 -0.078 0 0
344 3 -0.057 -0.077 0 0
345 3 -0.056 -0.077 0 0
146 3 -0.055 -0.079 0 0
147 3 -0.054 -0.079 0 0
148 3 -0.053 -0.079 0 0
246 3 -0.055 -0.078 0 0
247 3 -0.054 -0.078 0 0
248 3 -0.053 -0.078 0 0
346 3 -0.055 -0.077 0 0
347 3 -0.054 -0.077 0 0
348 3 -0.053 -0.077 0 0
149 3 -0.052 -0.079 0 0
150 3 -0.051 -0.079 0 0
249 3 -0.052 -0.078 0 0
250 3 -0.051 -0.078 0 0
349 3 -0.052 -0.077 0 0
350 3 -0.051 -0.077 0 0
151 3 -0.05 -0.079 0 0
152 3 -0.049 -0.079 0 0
153 3 -0.048 -0.079 0 0
251 3 -0.05 -0.078 0 0
252 3 -0.049 -0.078 0 0
253 3 -0.048 -0.078 0 0
351 3 -0.05 -0.077 0 0
352 3 -0.049 -0.077 0 0
353 3 -0.048 -0.077 0 0
154 3 -0.047 -0.079 0 0
155 3 -0.046 -0.079 0 0
254 3 -0.047 -0.078 0 0
255 3 -0.046 -0.078 0 0
354 3 -0.047 -0.077 0 0
355 3 -0.046 -0.077 0 0
156 3 -0.045 -0.079 0 0
157 3 -0.044 -0.079 0 0
158 3 -0.043 -0.079 0 0
256 3 -0.045 -0.078 0 0
257 3 -0.044 -0.078 0 0
258 3 -0.043 -0.078 0 0
356 3 -0.045 -0.077 0 0
357 3 -0.044 -0.077 0 0
358 3 -0.043 -0.077 0 0
159 3 -0.042 -0.079 0 0
160 3 -0.041 -0.079 0 0
259 3 -0.042 -0.078 0 0
260 3 -0.041 -0.078 0 0
359 3 -0.042 -0.077 0 0
360 3 -0.041 -0.077 0 0
161 3 -0.04 -0.079 0 0
162 3 -0.039 -0.079 0 0
163 3 -0.038 -0.079 0 0
261 3 -0.04 -0.078 0 0
262 3 -0.039 -0.078 0 0
263 3 -0.038 -0.078 0 0
361 3 -0.04 -0.077 0 0
362 3 -0.039 -0.077 0 0
363 3 -0.038 -0.077 0 0
164 3 -0.037 -0.079 0 0
165 3 -0.036 -0.079 0 0
264 3 -0.037 -0.078 0 0
265 3 -0.036 -0.078 0 0
364 3 -0.037 -0.077 0 0
365 3 -0.036 -0.077 0 0
166 3 -0.035 -0.079 0 0
167 3 -0.034 -0.079 0 0
168 3 -0.033 -0.079 0 0
266 3 -0.035 -0.078 0 0
267 3 -0.034 -0.078 0 0
268 3 -0.033 -0.078 0 0
366 3 -0.035 -0.077 0 0
367 3 -0.034 -0.077 0 0
368 3 -0.033 -0.077 0 0
169 3 -0.032 -0.079 0 0
170 3 -0.031 -0.079 0 0
269 3 -0.032 -0.078 0 0
270 3 -0.031 -0.078 0 0
369 3 -0.032 -0.077 0 0
370 3 -0.031 -0.077 0 0
171 3 -0.03 -0.079 0 0
172 3 -0.029 -0.079 0 0
173 3 -0.028 -0.079 0 0
271 3 -0.03 -0.078 0 0
272 3 -0.029 -0.078 0 0
273 3 -0.028 -0.078 0 0
371 3 -0.03 -0.077 0 0
372 3 -0.029 -0.077 0 0
373 3 -0.028 -0.077 0 0
174 3 -0.027 -0.079 0 0
175 3 -0.026 -0.079 0 0
274 3 -0.027 -0.078 0 0
275 3 -0.026 -0.078 0 0
374 3 -0.027 -0.077 0 0
375 3 -0.026 -0.077 0 0
176 3 -0.025 -0.079 0 0
177 3 -0.024 -0.079 0 0
178 3 -0.023 -0.079 0 0
276 3 -0.025 -0.078 0 0
277 3 -0.024 -0.078 0 0
278 3 -0.023 -0.078 0 0
376 3 -0.025 -0.077 0 0
377 3 -0.024 -0.077 0 0
378 3 -0.023 -0.077 0 0
179 3 -0.022 -0.079 0 0
180 3 -0.021 -0.079 0 0
279 3 -0.022 -0.078 0 0
280 3 -0.021 -0.078 0 0
379 3 -0.022 -0.077 0 0
380 3 -0.021 -0.077 0 0
181 3 -0.02 -0.079 0 0
182 3 -0.019 -0.079 0 0
183 3 -0.018 -0.079 0 0
281 3 -0.02 -0.078 0 0
282 3 -0.019 -0.078 0 0
283 3 -0.018 -0.078 0 0
381 3 -0.02 -0.077 0 0
382 3 -0.019 -0.077 0 0
383 3 -0.018 -0.077 0 0
184 3 -0.017 -0.079 0 0
185 3 -0.016 -0.079 0 0
284 3 -0.017 -0.078 0 0
285 3 -0.016 -0.078 0 0
384 3 -0.017 -0.077 0 0
385 3 -0.016 -0.077 0 0
186 3 -0.015 -0.079 0 0
187 3 -0.014 -0.079 0 0
188 3 -0.013 -0.079 0 0
286 3 -0.015 -0.078 0 0
287 3 -0.014 -0.078 0 0
288 3 -0.013 -0.078 0 0
386 3 -0.015 -0.077 0 0
387 3 -0.014 -0.077 0 0
388 3 -0.013 -0.077 0 0
189 3 -0.012 -0.079 0 0
190 3 -0.011 -0.079 0 0
289 3 -0.012 -0.078 0 0
290 3 -0.011 -0.078 0 0
389 3 -0.012 -0.077 0 0
390 3 -0.011 -0.077 0 0
191 3 -0.01 -0.079 0 0
192 3 -0.009 -0.079 0 0
193 3 -0.008 -0.079 0 0
291 3 -0.01 -0.078 0 0
292 3 -0.009 -0.078 0 0
293 3 -0.008 -0.078 0 0
391 3 -0.01 -0.077 0 0
392 3 -0.009 -0.077 0 0
393 3 -0.008 -0.077 0 0
194 3 -0.007 -0.079 0 0
195 3 -0.006 -0.079 0 0
294 3 -0.007 -0.078 0 0
295 3 -0.006 -0.078 0 0
394 3 -0.007 -0.077 0 0
395 3 -0.006 -0.077 0 0
196 3 -0.005 -0.079 0 0
197 3 -0.004 -0.079 0 0
198 3 -0.003 -0.079 0 0
296 3 -0.005 -0.078 0 0
297 3 -0.004 -0.078 0 0
298 3 -0.003 -0.078 0 0
396 3 -0.005 -0.077 0 0
397 3 -0.004 -0.077 0 0
398 3 -0.003 -0.077 0 0
199 3 -0.002 -0.079 0 0
200 3 -0.001 -0.079 0 0
299 3 -0.002 -0.078 0 0
300 3 -0.001 -0.078 0 0
399 3 -0.002 -0.077 0 0
400 3 -0.001 -0.077 0 0
401 3 -0.1 -0.076 0 0
402 3 -0.099 -0.076 0 0
403 3 -0.098 -0.076 0 0
501 3 -0.1 -0.075 0 0
502 3 -0.099 -0.075 0 0
503 3 -0.098 -0.075 0 0
404 3 -0.097 -0.076 0 0
405 3 -0.096 -0.076 0 0
504 3 -0.097 -0.075 0 0
505 3 -0.096 -0.075 0 0
406 3 -0.095 -0.076 0 0
506 3 -0.095 -0.075 0 0
407 3 -0.094 -0.076 0 0
408 3 -0.093 -0.076 0 0
507 3 -0.094 -0.075 0 0
508 3 -0.093 -0.075 0 0
409 3 -0.092 -0.076 0 0
410 3 -0.091 -0.076 0 0
509 3 -0.092 -0.075 0 0
510 3 -0.091 -0.075 0 0
411 3 -0.09 -0.076 0 0
511 3 -0.09 -0.075 0 0
412 3 -0.089 -0.076 0 0
413 3 -0.088 -0.076 0 0
512 3 -0.089 -0.075 0 0
513 3 -0.088 -0.075 0 0
414 3 -0.087 -0.076 0 0
415 3 -0.086 -0.076 0 0
514 3 -0.087 -0.075 0 0
515 3 -0.086 -0.075 0 0
416 3 -0.085 -0.076 0 0
516 3 -0.085 -0.075 0 0
417 3 -0.084 -0.076 0 0
418 3 -0.083 -0.076 0 0
517 3 -0.084 -0.075 0 0
518 3 -0.083 -0.075 0 0
419 3 -0.082 -0.076 0 0
420 3 -0.081 -0.076 0 0
519 3 -0.082 -0.075 0 0
520 3 -0.081 -0.075 0 0
421 3 -0.08 -0.076 0 0
521 3 -0.08 -0.075 0 0
422 3 -0.079 -0.076 0 0
423 3 -0.078 -0.076 0 0
522 3 -0.079 -0.075 0 0
523 3 -0.078 -0.075 0 0
424 3 -0.077 -0.076 0 0
524 3 -0.077 -0.075 0 0
425 3 -0.076 -0.076 0 0
525 3 -0.076 -0.075 0 0
426 3 -0.075 -0.076 0 0
526 3 -0.075 -0.075 0 0
427 3 -0.074 -0.076 0 0
428 3 -0.073 -0.076 0 0
527 3 -0.074 -0.075 0 0
528 3 -0.073 -0.075 0 0
429 3 -0.072 -0.076 0 0
529 3 -0.072 -0.075 0 0
430 3 -0.071 -0.076 0 0
530 3 -0.071 -0.075 0 0
431 3 -0.07 -0.076 0 0
531 3 -0.07 -0.075 0 0
432 3 -0.069 -0.076 0 0
433 3 -0.068 -0.076 0 0
532 3 -0.069 -0.075 0 0
533 3 -0.068 -0.075 0 0
434 3 -0.067 -0.076 0 0
534 3 -0.067 -0.075 0 0
435 3 -0.066 -0.076 0 0
535 3 -0.066 -0.075 0 0
436 3 -0.065 -0.076 0 0
536 3 -0.065 -0.075 0 0
437 3 -0.064 -0.076 0 0
438 3 -0.063 -0.076 0 0
537 3 -0.064 -0.075 0 0
538 3 -0.063 -0.075 0 0
439 3 -0.062 -0.076 0 0
539 3 -0.062 -0.075 0 0
440 3 -0.061 -0.076 0 0
540 3 -0.061 -0.075 0 0
441 3 -0.06 -0.076 0 0
541 3 -0.06 -0.075 0 0
442 3 -0.059 -0.076 0 0
542 3 -0.059 -0.075 0 0
443 3 -0.058 -0.076 0 0
543 3 -0.058 -0.075 0 0
444 3 -0.057 -0.076 0 0
544 3 -0.057 -0.075 0 0
445 3 -0.056 -0.076 0 0
545 3 -0.056 -0.075 0 0
446 3 -0.055 -0.076 0 0
546 3 -0.055 -0.075 0 0
447 3 -0.054 -0.076 0 0
547 3 -0.054 -0.075 0 0
448 3 -0.053 -0.076 0 0
548 3 -0.053 -0.075 0 0
449 3 -0.052 -0.076 0 0
549 3 -0.052 -0.075 0 0
450 3 -0.051 -0.076 0 0
550 3 -0.051 -0.075 0 0
451 3 -0.05 -0.076 0 0
551 3 -0.05 -0.075 0 0
452 3 -0.049 -0.076 0 0
552 3 -0.049 -0.075 0 0
453 3 -0.048 -0.076 0 0
553 3 -0.048 -0.075 0 0
454 3 -0.047 -0.076 0 0
554 3 -0.047 -0.075 0 0
455 3 -0.046 -0.076 0 0
555 3 -0.046 -0.075 0 0
456 3 -0.045 -0.076 0 0
556 3 -0.045 -0.075 0 0
457 3 -0.044 -0.076 0 0
557 3 -0.044 -0.075 0 0
458 3 -0.043 -0.076 0 0
558 3 -0.043 -0.075 0 0
459 3 -0.042 -0.076 0 0
559 3 -0.042 -0.075 0 0
460 3 -0.041 -0.076 0 0
560 3 -0.041 -0.075 0 0
461 3 -0.04 -0.076 0 0
561 3 -0.04 -0.075 0 0
462 3 -0.039 -0.076 0 0
562 3 -0.039 -0.075 0 0
463 3 -0.038 -0.076 0 0
563 3 -0.038 -0.075 0 0
464 3 -0.037 -0.076 0 0
465 3 -0.036 -0.076 0 0
564 3 -0.037 -0.075 0 0
565 3 -0.036 -0.075 0 0
466 3 -0.035 -0.076 0 0
566 3 -0.035 -0.075 0 0
467 3 -0.034 -0.076 0 0
567 3 -0.034 -0.075 0 0
468 3 -0.033 -0.076 0 0
568 3 -0.033 -0.075 0 0
469 3 -0.032 -0.076 0 0
470 3 -0.031 -0.076 0 0
569 3 -0.032 -0.075 0 0
570 3 -0.031 -0.075 0 0
471 3 -0.03 -0.076 0 0
571 3 -0.03 -0.075 0 0
472 3 -0.029 -0.076 0 0
572 3 -0.029 -0.075 0 0
473 3 -0.028 -0.076 0 0
573 3 -0.028 -0.075 0 0
474 3 -0.027 -0.076 0 0
475 3 -0.026 -0.076 0 0
574 3 -0.027 -0.075 0 0
575 3 -0.026 -0.075 0 0
476 3 -0.025 -0.076 0 0
576 3 -0.025 -0.075 0 0
477 3 -0.024 -0.076 0 0
577 3 -0.024 -0.075 0 0
478 3 -0.023 -0.076 0 0
578 3 -0.023 -0.075 0 0
479 3 -0.022 -0.076 0 0
480 3 -0.021 -0.076 0 0
579 3 -0.022 -0.075 0 0
580 3 -0.021 -0.075 0 0
481 3 -0.02 -0.076 0 0
581 3 -0.02 -0.075 0 0
482 3 -0.019 -0.076 0 0
483 3 -0.018 -0.076 0 0
582 3 -0.019 -0.075 0 0
583 3 -0.018 -0.075 0 0
484 3 -0.017 -0.076 0 0
485 3 -0.016 -0.076 0 0
584 3 -0.017 -0.075 0 0
585 3 -0.016 -0.075 0 0
486 3 -0.015 -0.076 0 0
586 3 -0.015 -0.075 0 0
487 3 -0.014 -0.076 0 0
488 3 -0.013 -0.076 0 0
587 3 -0.014 -0.075 0 0
588 3 -0.013 -0.075 0 0
489 3 -0.012 -0.076 0 0
490 3 -0.011 -0.076 0 0
589 3 -0.012 -0.075 0 0
590 3 -0.011 -0.075 0 0
491 3 -0.01 -0.076 0 0
591 3 -0.01 -0.075 0 0
492 3 -0.009 -0.076 0 0
493 3 -0.008 -0.076 0 0
592 3 -0.009 -0.075 0 0
593 3 -0.008 -0.075 0 0
494 3 -0.007 -0.076 0 0
495 3 -0.006 -0.076 0 0
594 3 -0.007 -0.075 0 0
595 3 -0.006 -0.075 0 0
496 3 -0.005 -0.076 0 0
596 3 -0.005 -0.075 0 0
497 3 -0.004 -0.076 0 0
498 3 -0.003 -0.076 0 0
597 3 -0.004 -0.075 0 0
598 3 -0.003 -0.075 0 0
499 3 -0.002 -0.076 0 0
500 3 -0.001 -0.076 0 0
599 3 -0.002 -0.075 0 0
600 3 -0.001 -0.075 0 0
601 3 -0.1 -0.074 0 0
602 3 -0.099 -0.074 0 0
603 3 -0.098 -0.074 0 0
701 3 -0.1 -0.073 0 0
702 3 -0.099 -0.073 0 0
703 3 -0.098 -0.073 0 0
801 3 -0.1 -0.072 0 0
802 3 -0.099 -0.072 0 0
803 3 -0.098 -0.072 0 0
604 3 -0.097 -0.074 0 0
605 3 -0.096 -0.074 0 0
704 3 -0.097 -0.073 0 0
705 3 -0.096 -0.073 0 0
804 3 -0.097 -0.072 0 0
805 3 -0.096 -0.072 0 0
606 3 -0.095 -0.074 0 0
607 3 -0.094 -0.074 0 0
608 3 -0.093 -0.074 0 0
706 3 -0.095 -0.073 0 0
707 3 -0.094 -0.073 0 0
708 3 -0.093 -0.073 0 0
806 3 -0.095 -0.072 0 0
807 3 -0.094 -0.072 0 0
808 3 -0.093 -0.072 0 0
609 3 -0.092 -0.074 0 0
610 3 -0.091 -0.074 0 0
709 3 -0.092 -0.073 0 0
710 3 -0.091 -0.073 0 0
809 3 -0.092 -0.072 0 0
810 3 -0.091 -0.072 0 0
611 3 -0.09 -0.074 0 0
612 3 -0.089 -0.074 0 0
613 3 -0.088 -0.074 0 0
711 3 -0.09 -0.073 0 0
712 3 -0.089 -0.073 0 0
713 3 -0.088 -0.073 0 0
811 3 -0.09 -0.072 0 0
812 3 -0.089 -0.072 0 0
813 3 -0.088 -0.072 0 0
614 3 -0.087 -0.074 0 0
615 3 -0.086 -0.074 0 0
714 3 -0.087 -0.073 0 0
715 3 -0.086 -0.073 0 0
814 3 -0.087 -0.072 0 0
815 3 -0.086 -0.072 0 0
616 3 -0.085 -0.074 0 0
617 3 -0.084 -0.074 0 0
618 3 -0.083 -0.074 0 0
716 3 -0.085 -0.073 0 0
717 3 -0.084 -0.073 0 0
718 3 -0.083 -0.073 0 0
816 3 -0.085 -0.072 0 0
817 3 -0.084 -0.072 0 0
818 3 -0.083 -0.072 0 0
619 3 -0.082 -0.074 0 0
620 3 -0.081 -0.074 0 0
719 3 -0.082 -0.073 0 0
720 3 -0.081 -0.073 0 0
819 3 -0.082 -0.072 0 0
820 3 -0.081 -0.072 0 0
621 3 -0.08 -0.074 0 0
622 3 -0.079 -0.074 0 0
623 3 -0.078 -0.074 0 0
721 3 -0.08 -0.073 0 0
722 3 -0.079 -0.073 0 0
723 3 -0.078 -0.073 0 0
821 3 -0.08 -0.072 0 0
822 3 -0.079 -0.072 0 0
823 3 -0.078 -0.072 0 0
624 3 -0.077 -0.074 0 0
625 3 -0.076 -0.074 0 0
724 3 -0.077 -0.073 0 0
725 3 -0.076 -0.073 0 0
824 3 -0.077 -0.072 0 0
825 3 -0.076 -0.072 0 0
626 3 -0.075 -0.074 0 0
627 3 -0.074 -0.074 0 0
628 3 -0.073 -0.074 0 0
726 3 -0.075 -0.073 0 0
727 3 -0.074 -0.073 0 0
728 3 -0.073 -0.073 0 0
826 3 -0.075 -0.072 0 0
827 3 -0.074 -0.072 0 0
828 3 -0.073 -0.072 0 0
629 3 -0.072 -0.074 0 0
630 3 -0.071 -0.074 0 0
729 3 -0.072 -0.073 0 0
730 3 -0.071 -0.073 0 0
829 3 -0.072 -0.072 0 0
830 3 -0.071 -0.072 0 0
631 3 -0.07 -0.074 0 0
632 3 -0.069 -0.074 0 0
633 3 -0.068 -0.074 0 0
731 3 -0.07 -0.073 0 0
732 3 -0.069 -0.073 0 0
733 3 -0.068 -0.073 0 0
831 3 -0.07 -0.072 0 0
832 3 -0.069 -0.072 0 0
833 3 -0.068 -0.072 0 0
634 3 -0.067 -0.074 0 0
635 3 -0.066 -0.074 0 0
734 3 -0.067 -0.073 0 0
735 3 -0.066 -0.073 0 0
834 3 -0.067 -0.072 0 0
835 3 -0.066 -0.072 0 0
636 3 -0.065 -0.074 0 0
637 3 -0.064 -0.074 0 0
638 3 -0.063 -0.074 0 0
736 3 -0.065 -0.073 0 0
737 3 -0.064 -0.073 0 0
738 3 -0.063 -0.073 0 0
836 3 -0.065 -0.072 0 0
837 3 -0.064 -0.072 0 0
838 3 -0.063 -0.072 0 0
639 3 -0.062 -0.074 0 0
640 3 -0.061 -0.074 0 0
739 3 -0.062 -0.073 0 0
740 3 -0.061 -0.073 0 0
839 3 -0.062 -0.072 0 0
840 3 -0.061 -0.072 0 0
641 3 -0.06 -0.074 0 0
642 3 -0.059 -0.074 0 0
643 3 -0.058 -0.074 0 0
741 3 -0.06 -0.073 0 0
742 3 -0.059 -0.073 0 0
743 3 -0.058 -0.073 0 0
841 3 -0.06 -0.072 0 0
842 3 -0.059 -0.072 0 0
843 3 -0.058 -0.072 0 0
644 3 -0.057 -0.074 0 0
645 3 -0.056 -0.074 0 0
744 3 -0.057 -0.073 0 0
745 3 -0.056 -0.073 0 0
844 3 -0.057 -0.072 0 0
845 3 -0.056 -0.072 0 0
646 3 -0.055 -0.074 0 0
647 3 -0.054 -0.074 0 0
648 3 -0.053 -0.074 0 0
746 3 -0.055 -0.073 0 0
747 3 -0.054 -0.073 0 0
748 3 -0.053 -0.073 0 0
846 3 -0.055 -0.072 0 0
847 3 -0.054 -0.072 0 0
848 3 -0.053 -0.072 0 0
649 3 -0.052 -0.074 0 0
650 3 -0.051 -0.074 0 0
749 3 -0.052 -0.073 0 0
750 3 -0.051 -0.073 0 0
849 3 -0.052 -0.072 0 0
850 3 -0.051 -0.072 0 0
651 3 -0.05 -0.074 0 0
652 3 -0.049 -0.074 0 0
653 3 -0.048 -0.074 0 0
751 3 -0.05 -0.073 0 0
752 3 -0.049 -0.073 0 0
753 3 -0.048 -0.073 0 0
851 3 -0.05 -0.072 0 0
852 3 -0.049 -0.072 0 0
853 3 -0.048 -0.072 0 0
654 3 -0.047 -0.074 0 0
655 3 -0.046 -0.074 0 0
754 3 -0.047 -0.073 0 0
755 3 -0.046 -0.073 0 0
854 3 -0.047 -0.072 0 0
855 3 -0.046 -0.072 0 0
656 3 -0.045 -0.074 0 0
657 3 -0.044 -0.074 0 0
658 3 -0.043 -0.074 0 0
756 3 -0.045 -0.073 0 0
757 3 -0.044 -0.073 0 0
758 3 -0.043 -0.073 0 0
856 3 -0.045 -0.072 0 0
857 3 -0.044 -0.072 0 0
858 3 -0.043 -0.072 0 0
659 3 -0.042 -0.074 0 0
660 3 -0.041 -0.074 0 0
759 3 -0.042 -0.073 0 0
760 3 -0.041 -0.073 0 0
859 3 -0.042 -0.072 0 0
860 3 -0.041 -0.072 0 0
661 3 -0.04 -0.074 0 0
662 3 -0.039 -0.074 0 0
663 3 -0.038 -0.074 0 0
761 3 -0.04 -0.073 0 0
762 3 -0.039 -0.073 0 0
763 3 -0.038 -0.073 0 0
861 3 -0.04 -0.072 0 0
862 3 -0.039 -0.072 0 0
863 3 -0.038 -0.072 0 0
664 3 -0.037 -0.074 0 0
665 3 -0.036 -0.074 0 0
764 3 -0.037 -0.073 0 0
765 3 -0.036 -0.073 0 0
864 3 -0.037 -0.072 0 0
865 3 -0.036 -0.072 0 0
666 3 -0.035 -0.074 0 0
667 3 -0.034 -0.074 0 0
668 3 -0.033 -0.074 0 0
766 3 -0.035 -0.073 0 0
767 3 -0.034 -0.073 0 0
768 3 -0.033 -0.073 0 0
866 3 -0.035 -0.072 0 0
867 3 -0.034 -0.072 0 0
868 3 -0.033 -0.072 0 0
669 3 -0.032 -0.074 0 0
670 3 -0.031 -0.074 0 0
769 3 -0.032 -0.073 0 0
770 3 -0.031 -0.073 0 0
869 3 -0.032 -0.072 0 0
870 3 -0.031 -0.072 0 0
671 3 -0.03 -0.074 0 0
672 3 -0.029 -0.074 0 0
673 3 -0.028 -0.074 0 0
771 3 -0.03 -0.073 0 0
772 3 -0.029 -0.073 0 0
773 3 -0.028 -0.073 0 0
871 3 -0.03 -0.072 0 0
872 3 -0.029 -0.072 0 0
873 3 -0.028 -0.072 0 0
674 3 -0.027 -0.074 0 0
675 3 -0.026 -0.074 0 0
774 3 -0.027 -0.073 0 0
775 3 -0.026 -0.073 0 0
874 3 -0.027 -0.072 0 0
875 3 -0.026 -0.072 0 0
676 3 -0.025 -0.074 0 0
677 3 -0.024 -0.074 0 0
678 3 -0.023 -0.074 0 0
776 3 -0.025 -0.073 0 0
777 3 -0.024 -0.073 0 0
778 3 -0.023 -0.073 0 0
876 3 -0.025 -0.072 0 0
877 3 -0.024 -0.072 0 0
878 3 -0.023 -0.072 0 0
679 3 -0.022 -0.074 0 0
680 3 -0.021 -0.074 0 0
779 3 -0.022 -0.073 0 0
780 3 -0.021 -0.073 0 0
879 3 -0.022 -0.072 0 0
880 3 -0.021 -0.072 0 0
681 3 -0.02 -0.074 0 0
682 3 -0.019 -0.074 0 0
683 3 -0.018 -0.074 0 0
781 3 -0.02 -0.073 0 0
782 3 -0.019 -0.073 0 0
783 3 -0.018 -0.073 0 0
881 3 -0.02 -0.072 0 0
882 3 -0.019 -0.072 0 0
883 3 -0.018 -0.072 0 0
684 3 -0.017 -0.074 0 0
685 3 -0.016 -0.074 0 0
784 3 -0.017 -0.073 0 0
785 3 -0.016 -0.073 0 0
884 3 -0.017 -0.072 0 0
885 3 -0.016 -0.072 0 0
686 3 -0.015 -0.074 0 0
687 3 -0.014 -0.074 0 0
688 3 -0.013 -0.074 0 0
786 3 -0.015 -0.073 0 0
787 3 -0.014 -0.073 0 0
788 3 -0.013 -0.073 0 0
886 3 -0.015 -0.072 0 0
887 3 -0.014 -0.072 0 0
888 3 -0.013 -0.072 0 0
689 3 -0.012 -0.074 0 0
690 3 -0.011 -0.074 0 0
789 3 -0.012 -0.073 0 0
790 3 -0.011 -0.073 0 0
889 3 -0.012 -0.072 0 0
890 3 -0.011 -0.072 0 0
691 3 -0.01 -0.074 0 0
692 3 -0.009 -0.074 0 0
693 3 -0.008 -0.074 0 0
791 3 -0.01 -0.073 0 0
792 3 -0.009 -0.073 0 0
793 3 -0.008 -0.073 0 0
891 3 -0.01 -0.072 0 0
892 3 -0.009 -0.072 0 0
893 3 -0.008 -0.072 0 0
694 3 -0.007 -0.074 0 0
695 3 -0.006 -0.074 0 0
794 3 -0.007 -0.073 0 0
795 3 -0.006 -0.073 0 0
894 3 -0.007 -0.072 0 0
895 3 -0.006 -0.072 0 0
696 3 -0.005 -0.074 0 0
697 3 -0.004 -0.074 0 0
698 3 -0.003 -0.074 0 0
796 3 -0.005 -0.073 0 0
797 3 -0.004 -0.073 0 0
798 3 -0.003 -0.073 0 0
896 3 -0.005 -0.072 0 0
897 3 -0.004 -0.072 0 0
898 3 -0.003 -0.072 0 0
699 3 -0.002 -0.074 0 0
700 3 -0.001 -0.074 0 0
799 3 -0.002 -0.073 0 0
800 3 -0.001 -0.073 0 0
899 3 -0.002 -0.072 0 0
900 3 -0.001 -0.072 0 0
901 3 -0.1 -0.071 0 0
902 3 -0.099 -0.071 0 0
903 3 -0.098 -0.071 0 0
1001 3 -0.1 -0.07 0 0
1002 3 -0.099 -0.07 0 0
1003 3 -0.098 -0.07 0 0
904 3 -0.097 -0.071 0 0
905 3 -0.096 -0.071 0 0
1004 3 -0.097 -0.07 0 0
1005 3 -0.096 -0.07 0 0
906 3 -0.095 -0.071 0 0
1006 3 -0.095 -0.07 0 0
907 3 -0.094 -0.071 0 0
908 3 -0.093 -0.071 0 0
1007 3 -0.094 -0.07 0 0
1008 3 -0.093 -0.07 0 0
909 3 -0.092 -0.071 0 0
910 3 -0.091 -0.071 0 0
1009 3 -0.092 -0.07 0 0
1010 3 -0.091 -0.07 0 0
911 3 -0.09 -0.071 0 0
1011 3 -0.09 -0.07 0 0
912 3 -0.089 -0.071 0 0
913 3 -0.088 -0.071 0 0
1012 3 -0.089 -0.07 0 0
1013 3 -0.088 -0.07 0 0
914 3 -0.087 -0.071 0 0
915 3 -0.086 -0.071 0 0
1014 3 -0.087 -0.07 0 0
1015 3 -0.086 -0.07 0 0
916 3 -0.085 -0.071 0 0
1016 3 -0.085 -0.07 0 0
917 3 -0.084 -0.071 0 0
918 3 -0.083 -0.071 0 0
1017 3 -0.084 -0.07 0 0
1018 3 -0.083 -0.07 0 0
919 3 -0.082 -0.071 0 0
920 3 -0.081 -0.071 0 0
1019 3 -0.082 -0.07 0 0
1020 3 -0.081 -0.07 0 0
921 3 -0.08 -0.071 0 0
1021 3 -0.08 -0.07 0 0
922 3 -0.079 -0.071 0 0
923 3 -0.078 -0.071 0 0
1022 3 -0.079 -0.07 0 0
1023 3 -0.078 -0.07 0 0
924 3 -0.077 -0.071 0 0
1024 3 -0.077 -0.07 0 0
925 3 -0.076 -0.071 0 0
1025 3 -0.076 -0.07 0 0
926 3 -0.075 -0.071 0 0
1026 3 -0.075 -0.07 0 0
927 3 -0.074 -0.071 0 0
928 3 -0.073 -0.071 0 0
1027 3 -0.074 -0.07 0 0
1028 3 -0.073 -0.07 0 0
929 3 -0.072 -0.071 0 0
1029 3 -0.072 -0.07 0 0
930 3 -0.071 -0.071 0 0
1030 3 -0.071 -0.07 0 0
931 3 -0.07 -0.071 0 0
1031 3 -0.07 -0.07 0 0
932 3 -0.069 -0.071 0 0
933 3 -0.068 -0.071 0 0
1032 3 -0.069 -0.07 0 0
1033 3 -0.068 -0.07 0 0
934 3 -0.067 -0.071 0 0
1034 3 -0.067 -0.07 0 0
935 3 -0.066 -0.071 0 0
1035 3 -0.066 -0.07 0 0
936 3 -0.065 -0.071 0 0
1036 3 -0.065 -0.07 0 0
937 3 -0.064 -0.071 0 0
938 3 -0.063 -0.071 0 0
1037 3 -0.064 -0.07 0 0
1038 3 -0.063 -0.07 0 0
939 3 -0.062 -0.071 0 0
1039 3 -0.062 -0.07 0 0
940 3 -0.061 -0.071 0 0
1040 3 -0.061 -0.07 0 0
941 3 -0.06 -0.071 0 0
1041 3 -0.06 -0.07 0 0
942 3 -0.059 -0.071 0 0
1042 3 -0.059 -0.07 0 0
943 3 -0.058 -0.071 0 0
1043 3 -0.058 -0.07 0 0
944 3 -0.057 -0.071 0 0
1044 3 -0.057 -0.07 0 0
945 3 -0.056 -0.071 0 0
1045 3 -0.056 -0.07 0 0
946 3 -0.055 -0.071 0 0
1046 3 -0.055 -0.07 0 0
947 3 -0.054 -0.071 0 0
1047 3 -0.054 -0.07 0 0
948 3 -0.053 -0.071 0 0
1048 3 -0.053 -0.07 0 0
949 3 -0.052 -0.071 0 0
1049 3 -0.052 -0.07 0 0
950 3 -0.051 -0.071 0 0
1050 3 -0.051 -0.07 0 0
951 3 -0.05 -0.071 0 0
1051 3 -0.05 -0.07 0 0
952 3 -0.049 -0.071 0 0
1052 3 -0.049 -0.07 0 0
953 3 -0.048 -0.071 0 0
1053 3 -0.048 -0.07 0 0
954 3 -0.047 -0.071 0 0
1054 3 -0.047 -0.07 0 0
955 3 -0.046 -0.071 0 0
1055 3 -0.046 -0.07 0 0
956 3 -0.045 -0.071 0 0
1056 3 -0.045 -0.07 0 0
957 3 -0.044 -0.071 0 0
1057 3 -0.044 -0.07 0 0
958 3 -0.043 -0.071 0 0
1058 3 -0.043 -0.07 0 0
959 3 -0.042 -0.071 0 0
1059 3 -0.042 -0.07 0 0
960 3 -0.041 -0.071 0 0
1060 3 -0.041 -0.07 0 0
961 3 -0.04 -0.071 0 0
1061 3 -0.04 -0.07 0 0
962 3 -0.039 -0.071 0 0
1062 3 -0.039 -0.07 0 0
963 3 -0.038 -0.071 0 0
1063 3 -0.038 -0.07 0 0
964 3 -0.037 -0.071 0 0
965 3 -0.036 -0.071 0 0
1064 3 -0.037 -0.07 0 0
1065 3 -0.036 -0.07 0 0
966 3 -0.035 -0.071 0 0
1066 3 -0.035 -0.07 0 0
967 3 -0.034 -0.071 0 0
1067 3 -0.034 -0.07 0 0
968 3 -0.033 -0.071 0 0
1068 3 -0.033 -0.07 0 0
969 3 -0.032 -0.071 0 0
970 3 -0.031 -0.071 0 0
1069 3 -0.032 -0.07 0 0
1070 3 -0.031 -0.07 0 0
971 3 -0.03 -0.071 0 0
1071 3 -0.03 -0.07 0 0
972 3 -0.029 -0.071 0 0
1072 3 -0.029 -0.07 0 0
973 3 -0.028 -0.071 0 0
1073 3 -0.028 -0.07 0 0
974 3 -0.027 -0.071 0 0
975 3 -0.026 -0.071 0 0
1074 3 -0.027 -0.07 0 0
1075 3 -0.026 -0.07 0 0
976 3 -0.025 -0.071 0 0
1076 3 -0.025 -0.07 0 0
977 3 -0.024 -0.071 0 0
1077 3 -0.024 -0.07 0 0
978 3 -0.023 -0.071 0 0
1078 3 -0.023 -0.07 0 0
979 3 -0.022 -0.071 0 0
980 3 -0.021 -0.071 0 0
1079 3 -0.022 -0.07 0 0
1080 3 -0.021 -0.07 0 0
981 3 -0.02 -0.071 0 0
1081 3 -0.02 -0.07 0 0
982 3 -0.019 -0.071 0 0
983 3 -0.018 -0.071 0 0
1082 3 -0.019 -0.07 0 0
1083 3 -0.018 -0.07 0 0
984 3 -0.017 -0.071 0 0
985 3 -0.016 -0.071 0 0
1084 3 -0.017 -0.07 0 0
1085 3 -0.016 -0.07 0 0
986 3 -0.015 -0.071 0 0
1086 3 -0.015 -0.07 0 0
987 3 -0.014 -0.071 0 0
988 3 -0.013 -0.071 0 0
1087 3 -0.014 -0.07 0 0
1088 3 -0.013 -0.07 0 0
989 3 -0.012 -0.071 0 0
990 3 -0.011 -0.071 0 0
1089 3 -0.012 -0.07 0 0
1090 3 -0.011 -0.07 0 0
991 3 -0.01 -0.071 0 0
1091 3 -0.01 -0.07 0 0
992 3 -0.009 -0.071 0 0
993 3 -0.008 -0.071 0 0
1092 3 -0.009 -0.07 0 0
1093 3 -0.008 -0.07 0 0
994 3 -0.007 -0.071 0 0
995 3 -0.006 -0.071 0 0
1094 3 -0.007 -0.07 0 0
1095 3 -0.006 -0.07 0 0
996 3 -0.005 -0.071 0 0
1096 3 -0.005 -0.07 0 0
997 3 -0.004 -0.071 0 0
998 3 -0.003 -0.071 0 0
1097 3 -0.004 -0.07 0 0
1098 3 -0.003 -0.07 0 0
999 3 -0.002 -0.071 0 0
1000 3 -0.001 -0.071 0 0
1099 3 -0.002 -0.07 0 0
1100 3 -0.001 -0.07 0 0
1196 1 -0.0929386 -0.0670375 -0.938961 -0.0116859
1145 1 -0.0934462 -0.0666193 -0.939329 -0.0146259
1197 1 -0.09159 -0.0681318 -0.935122 -0.00678336
1246 1 -0.0917995 -0.0673507 -0.938178 -0.00761369
1247 1 -0.0910294 -0.0676137 -0.935435 -0.00396042
1198 1 -0.0902275 -0.0680742 -0.934306 -0.00173566
1194 1 -0.0908446 -0.0666376 -0.936928 -0.00523479
1297 1 -0.0893221 -0.0679171 -0.932478 -0.00745347
1248 1 -0.0887075 -0.0681119 -0.931977 -0.00753443
1298 1 -0.0881935 -0.0679815 -0.932369 -0.00521744
1296 1 -0.0894478 -0.0670059 -0.935176 -0.00858376
1295 1 -0.0885809 -0.0666922 -0.933453 -0.0081028
1347 1 -0.0873223 -0.0677153 -0.933518 -0.00566701
1199 1 -0.0867878 -0.0681427 -0.929396 -0.00377668
1346 1 -0.0863238 -0.0673815 -0.930935 -0.00753092
1348 1 -0.0851721 -0.0678796 -0.928895 -0.00617716
1345 1 -0.0873906 -0.0666586 -0.933078 -0.00761189
1344 1 -0.0861343 -0.0667535 -0.931378 -0.00869915
1249 1 -0.084798 -0.0680967 -0.928643 -0.00300291
1299 1 -0.0840508 -0.0680949 -0.927706 0.0042786
1349 1 -0.0833588 -0.0680881 -0.926561 -0.00204815
1397 1 -0.083254 -0.0671729 -0.927911 -0.00127483
1398 1 -0.0826647 -0.0679426 -0.928042 -0.00254655
1396 1 -0.0846782 -0.066926 -0.932984 -0.00496335
1200 1 -0.0819044 -0.0681362 -0.924626 0.00165753
1447 1 -0.080335 -0.0680996 -0.92298 -0.00078359
1446 1 -0.0808516 -0.0678292 -0.921564 -0.00408766
1394 1 -0.0816909 -0.0670752 -0.925341 -0.00610399
1445 1 -0.0802491 -0.0670411 -0.925637 -0.00165787
1399 1 -0.079618 -0.068087 -0.919982 -0.0015718
1250 1 -0.0790194 -0.0680722 -0.919969 0.0050927
1448 1 -0.0783618 -0.0680777 -0.9197 0.00201689
1300 1 -0.0776825 -0.0680852 -0.918563 -0.00101876
1496 1 -0.0778688 -0.0668353 -0.921903 -0.00121678
1350 1 -0.0769489 -0.0681062 -0.917596 0.0051738
1497 1 -0.0768746 -0.0671847 -0.919322 0.00124101
1449 1 -0.0762726 -0.0680691 -0.918293 0.00391105
1400 1 -0.0753653 -0.0680982 -0.91644 0.00162721
1498 1 -0.075611 -0.0672853 -0.91772 0.00192851
1450 1 -0.0748321 -0.0680853 -0.917214 0.00287142
1500 1 -0.0738585 -0.0680942 -0.915337 0.0035001
1548 1 -0.0740792 -0.0672493 -0.917785 0.00140783
1499 1 -0.0733679 -0.0680784 -0.917689 0.00229548
1647 1 -0.0728047 -0.0670128 -0.916 0.000945801
1598 1 -0.0723078 -0.0680932 -0.913459 0.00474782
1648 1 -0.071935 -0.0680765 -0.912853 0.0034695
1698 1 -0.0710613 -0.067724 -0.912508 -0.00457582
1599 1 -0.0703734 -0.068075 -0.91181 0.000657718
1645 1 -0.071756 -0.0667227 -0.912156 -0.00141879
1644 1 -0.0707711 -0.0666387 -0.913258 -0.00284186
1549 1 -0.0698984 -0.0680875 -0.909858 0.00463044
1649 1 -0.0690672 -0.068057 -0.910005 0.0052171
1550 1 -0.0683513 -0.068091 -0.910081 0.00178389
1697 1 -0.0687139 -0.0671481 -0.909941 0.00258078
1600 1 -0.0677137 -0.0680697 -0.909732 0.000152639
1696 1 -0.0697004 -0.0668387 -0.912551 0.000995853
1650 1 -0.0668838 -0.0680832 -0.90928 0.00420571
1699 1 -0.0663194 -0.0680725 -0.909626 0.00268726
1747 1 -0.065411 -0.0680297 -0.90957 0.00320456
1694 1 -0.0651235 -0.0672694 -0.908623 0.00373495
1695 1 -0.0673989 -0.0669671 -0.910071 0.000851125
1642 1 -0.0663325 -0.0670056 -0.909888 0.00280637
1700 1 -0.0641344 -0.0679999 -0.910317 0.00350291
1748 1 -0.0646863 -0.0681379 -0.908339 0.0012581
1746 1 -0.0636806 -0.0673973 -0.905533 -0.00373435
8151 1 -0.0627291 -0.068096 -0.903148 0.00203446
8100 1 -0.0625096 -0.0680853 -0.904078 -1.05458e-05
1797 1 -0.0611578 -0.0680084 -0.898352 0.00211088
1749 1 -0.060664 -0.0681179 -0.90002 -0.000383597
1744 1 -0.0601062 -0.0671394 -0.900602 0.00168921
1745 1 -0.0624026 -0.0670211 -0.904019 4.45767e-06
1743 1 -0.0614864 -0.0671684 -0.901695 -0.00293962
1750 1 -0.059851 -0.0680624 -0.898715 0.00525694